V -t * -v 1.0a5 -a 0
A -t * -n 1 -p 0 -o 0x7fffffff -c 30 -a 1
A -t * -h 1 -m 1073741823 -s 0
c -t * -i 4 -n Yellow
c -t * -i 1 -n Green
c -t * -i 2 -n Blue
c -t * -i 3 -n Red
n -t * -a 8 -s 8 -S UP -v circle -c yellow -i yellow
n -t * -a 4 -s 4 -S UP -v circle -c yellow -i yellow
n -t * -a 0 -s 0 -S UP -v box -c black -i black
n -t * -a 5 -s 5 -S UP -v circle -c green -i green
n -t * -a 1 -s 1 -S UP -v circle -c green -i green
n -t * -a 6 -s 6 -S UP -v circle -c blue -i blue
n -t * -a 2 -s 2 -S UP -v circle -c blue -i blue
n -t * -a 7 -s 7 -S UP -v circle -c red -i red
n -t * -a 3 -s 3 -S UP -v circle -c red -i red
l -t * -s 0 -d 1 -S UP -r 1000000 -D 0.050000000000000003 -c black -o up
l -t * -s 0 -d 2 -S UP -r 1000000 -D 0.050000000000000003 -c black -o right-up
l -t * -s 0 -d 3 -S UP -r 1000000 -D 0.050000000000000003 -c black -o right
l -t * -s 0 -d 4 -S UP -r 1000000 -D 0.050000000000000003 -c black -o right-down
l -t * -s 0 -d 5 -S UP -r 200000 -D 0.20000000000000001 -c black -o down
l -t * -s 0 -d 6 -S UP -r 200000 -D 0.20000000000000001 -c black -o left-down
l -t * -s 0 -d 7 -S UP -r 200000 -D 0.20000000000000001 -c black -o left
l -t * -s 0 -d 8 -S UP -r 200000 -D 0.20000000000000001 -c black -o left-up
+ -t 0.1 -s 1 -d 0 -p tcp -e 1500 -c 1 -i 0 -a 1 -x {1.0 5.0 0 ------- null}
- -t 0.1 -s 1 -d 0 -p tcp -e 1500 -c 1 -i 0 -a 1 -x {1.0 5.0 0 ------- null}
h -t 0.1 -s 1 -d 0 -p tcp -e 1500 -c 1 -i 0 -a 1 -x {1.0 5.0 -1 ------- null}
+ -t 0.1 -s 4 -d 0 -p tcp -e 1000 -c 4 -i 1 -a 4 -x {4.0 8.0 0 ------- null}
- -t 0.1 -s 4 -d 0 -p tcp -e 1000 -c 4 -i 1 -a 4 -x {4.0 8.0 0 ------- null}
h -t 0.1 -s 4 -d 0 -p tcp -e 1000 -c 4 -i 1 -a 4 -x {4.0 8.0 -1 ------- null}
r -t 0.158 -s 4 -d 0 -p tcp -e 1000 -c 4 -i 1 -a 4 -x {4.0 8.0 0 ------- null}
+ -t 0.158 -s 0 -d 8 -p tcp -e 1000 -c 4 -i 1 -a 4 -x {4.0 8.0 0 ------- null}
- -t 0.158 -s 0 -d 8 -p tcp -e 1000 -c 4 -i 1 -a 4 -x {4.0 8.0 0 ------- null}
h -t 0.158 -s 0 -d 8 -p tcp -e 1000 -c 4 -i 1 -a 4 -x {4.0 8.0 -1 ------- null}
r -t 0.162 -s 1 -d 0 -p tcp -e 1500 -c 1 -i 0 -a 1 -x {1.0 5.0 0 ------- null}
+ -t 0.162 -s 0 -d 5 -p tcp -e 1500 -c 1 -i 0 -a 1 -x {1.0 5.0 0 ------- null}
- -t 0.162 -s 0 -d 5 -p tcp -e 1500 -c 1 -i 0 -a 1 -x {1.0 5.0 0 ------- null}
h -t 0.162 -s 0 -d 5 -p tcp -e 1500 -c 1 -i 0 -a 1 -x {1.0 5.0 -1 ------- null}
+ -t 0.225462013838808 -s 3 -d 0 -p exp -e 1000 -c 3 -i 2 -a 3 -x {3.0 7.0 0 ------- null}
- -t 0.225462013838808 -s 3 -d 0 -p exp -e 1000 -c 3 -i 2 -a 3 -x {3.0 7.0 0 ------- null}
h -t 0.225462013838808 -s 3 -d 0 -p exp -e 1000 -c 3 -i 2 -a 3 -x {3.0 7.0 -1 ------- null}
+ -t 0.2743672170149 -s 2 -d 0 -p exp -e 1000 -c 2 -i 3 -a 2 -x {2.0 6.0 0 ------- null}
- -t 0.2743672170149 -s 2 -d 0 -p exp -e 1000 -c 2 -i 3 -a 2 -x {2.0 6.0 0 ------- null}
h -t 0.2743672170149 -s 2 -d 0 -p exp -e 1000 -c 2 -i 3 -a 2 -x {2.0 6.0 -1 ------- null}
r -t 0.283462013838808 -s 3 -d 0 -p exp -e 1000 -c 3 -i 2 -a 3 -x {3.0 7.0 0 ------- null}
+ -t 0.283462013838808 -s 0 -d 7 -p exp -e 1000 -c 3 -i 2 -a 3 -x {3.0 7.0 0 ------- null}
- -t 0.283462013838808 -s 0 -d 7 -p exp -e 1000 -c 3 -i 2 -a 3 -x {3.0 7.0 0 ------- null}
h -t 0.283462013838808 -s 0 -d 7 -p exp -e 1000 -c 3 -i 2 -a 3 -x {3.0 7.0 -1 ------- null}
r -t 0.3323672170149 -s 2 -d 0 -p exp -e 1000 -c 2 -i 3 -a 2 -x {2.0 6.0 0 ------- null}
+ -t 0.3323672170149 -s 0 -d 6 -p exp -e 1000 -c 2 -i 3 -a 2 -x {2.0 6.0 0 ------- null}
- -t 0.3323672170149 -s 0 -d 6 -p exp -e 1000 -c 2 -i 3 -a 2 -x {2.0 6.0 0 ------- null}
h -t 0.3323672170149 -s 0 -d 6 -p exp -e 1000 -c 2 -i 3 -a 2 -x {2.0 6.0 -1 ------- null}
r -t 0.398 -s 0 -d 8 -p tcp -e 1000 -c 4 -i 1 -a 4 -x {4.0 8.0 0 ------- null}
+ -t 0.398 -s 8 -d 0 -p ack -e 40 -c 4 -i 4 -a 4 -x {8.0 4.0 0 ------- null}
- -t 0.398 -s 8 -d 0 -p ack -e 40 -c 4 -i 4 -a 4 -x {8.0 4.0 0 ------- null}
h -t 0.398 -s 8 -d 0 -p ack -e 40 -c 4 -i 4 -a 4 -x {8.0 4.0 -1 ------- null}
r -t 0.422 -s 0 -d 5 -p tcp -e 1500 -c 1 -i 0 -a 1 -x {1.0 5.0 0 ------- null}
+ -t 0.422 -s 5 -d 0 -p ack -e 40 -c 1 -i 5 -a 1 -x {5.0 1.0 0 ------- null}
- -t 0.422 -s 5 -d 0 -p ack -e 40 -c 1 -i 5 -a 1 -x {5.0 1.0 0 ------- null}
h -t 0.422 -s 5 -d 0 -p ack -e 40 -c 1 -i 5 -a 1 -x {5.0 1.0 -1 ------- null}
r -t 0.523462013838808 -s 0 -d 7 -p exp -e 1000 -c 3 -i 2 -a 3 -x {3.0 7.0 0 ------- null}
+ -t 0.523462013838808 -s 7 -d 0 -p ack -e 40 -c 3 -i 6 -a 3 -x {7.0 3.0 0 ------- null}
- -t 0.523462013838808 -s 7 -d 0 -p ack -e 40 -c 3 -i 6 -a 3 -x {7.0 3.0 0 ------- null}
h -t 0.523462013838808 -s 7 -d 0 -p ack -e 40 -c 3 -i 6 -a 3 -x {7.0 3.0 -1 ------- null}
r -t 0.5723672170149 -s 0 -d 6 -p exp -e 1000 -c 2 -i 3 -a 2 -x {2.0 6.0 0 ------- null}
+ -t 0.5723672170149 -s 6 -d 0 -p ack -e 40 -c 2 -i 7 -a 2 -x {6.0 2.0 0 ------- null}
- -t 0.5723672170149 -s 6 -d 0 -p ack -e 40 -c 2 -i 7 -a 2 -x {6.0 2.0 0 ------- null}
h -t 0.5723672170149 -s 6 -d 0 -p ack -e 40 -c 2 -i 7 -a 2 -x {6.0 2.0 -1 ------- null}
r -t 0.5996 -s 8 -d 0 -p ack -e 40 -c 4 -i 4 -a 4 -x {8.0 4.0 0 ------- null}
+ -t 0.5996 -s 0 -d 4 -p ack -e 40 -c 4 -i 4 -a 4 -x {8.0 4.0 0 ------- null}
- -t 0.5996 -s 0 -d 4 -p ack -e 40 -c 4 -i 4 -a 4 -x {8.0 4.0 0 ------- null}
h -t 0.5996 -s 0 -d 4 -p ack -e 40 -c 4 -i 4 -a 4 -x {8.0 4.0 -1 ------- null}
r -t 0.6236 -s 5 -d 0 -p ack -e 40 -c 1 -i 5 -a 1 -x {5.0 1.0 0 ------- null}
+ -t 0.6236 -s 0 -d 1 -p ack -e 40 -c 1 -i 5 -a 1 -x {5.0 1.0 0 ------- null}
- -t 0.6236 -s 0 -d 1 -p ack -e 40 -c 1 -i 5 -a 1 -x {5.0 1.0 0 ------- null}
h -t 0.6236 -s 0 -d 1 -p ack -e 40 -c 1 -i 5 -a 1 -x {5.0 1.0 -1 ------- null}
r -t 0.64992 -s 0 -d 4 -p ack -e 40 -c 4 -i 4 -a 4 -x {8.0 4.0 0 ------- null}
+ -t 0.64992 -s 4 -d 0 -p tcp -e 1000 -c 4 -i 8 -a 4 -x {4.0 8.0 1 ------- null}
- -t 0.64992 -s 4 -d 0 -p tcp -e 1000 -c 4 -i 8 -a 4 -x {4.0 8.0 1 ------- null}
h -t 0.64992 -s 4 -d 0 -p tcp -e 1000 -c 4 -i 8 -a 4 -x {4.0 8.0 -1 ------- null}
r -t 0.67392 -s 0 -d 1 -p ack -e 40 -c 1 -i 5 -a 1 -x {5.0 1.0 0 ------- null}
+ -t 0.67392 -s 1 -d 0 -p tcp -e 1500 -c 1 -i 9 -a 1 -x {1.0 5.0 1 ------- null}
- -t 0.67392 -s 1 -d 0 -p tcp -e 1500 -c 1 -i 9 -a 1 -x {1.0 5.0 1 ------- null}
h -t 0.67392 -s 1 -d 0 -p tcp -e 1500 -c 1 -i 9 -a 1 -x {1.0 5.0 -1 ------- null}
r -t 0.70792 -s 4 -d 0 -p tcp -e 1000 -c 4 -i 8 -a 4 -x {4.0 8.0 1 ------- null}
+ -t 0.70792 -s 0 -d 8 -p tcp -e 1000 -c 4 -i 8 -a 4 -x {4.0 8.0 1 ------- null}
- -t 0.70792 -s 0 -d 8 -p tcp -e 1000 -c 4 -i 8 -a 4 -x {4.0 8.0 1 ------- null}
h -t 0.70792 -s 0 -d 8 -p tcp -e 1000 -c 4 -i 8 -a 4 -x {4.0 8.0 -1 ------- null}
r -t 0.725062013838808 -s 7 -d 0 -p ack -e 40 -c 3 -i 6 -a 3 -x {7.0 3.0 0 ------- null}
+ -t 0.725062013838808 -s 0 -d 3 -p ack -e 40 -c 3 -i 6 -a 3 -x {7.0 3.0 0 ------- null}
- -t 0.725062013838808 -s 0 -d 3 -p ack -e 40 -c 3 -i 6 -a 3 -x {7.0 3.0 0 ------- null}
h -t 0.725062013838808 -s 0 -d 3 -p ack -e 40 -c 3 -i 6 -a 3 -x {7.0 3.0 -1 ------- null}
r -t 0.73592 -s 1 -d 0 -p tcp -e 1500 -c 1 -i 9 -a 1 -x {1.0 5.0 1 ------- null}
+ -t 0.73592 -s 0 -d 5 -p tcp -e 1500 -c 1 -i 9 -a 1 -x {1.0 5.0 1 ------- null}
- -t 0.73592 -s 0 -d 5 -p tcp -e 1500 -c 1 -i 9 -a 1 -x {1.0 5.0 1 ------- null}
h -t 0.73592 -s 0 -d 5 -p tcp -e 1500 -c 1 -i 9 -a 1 -x {1.0 5.0 -1 ------- null}
r -t 0.7739672170149 -s 6 -d 0 -p ack -e 40 -c 2 -i 7 -a 2 -x {6.0 2.0 0 ------- null}
+ -t 0.7739672170149 -s 0 -d 2 -p ack -e 40 -c 2 -i 7 -a 2 -x {6.0 2.0 0 ------- null}
- -t 0.7739672170149 -s 0 -d 2 -p ack -e 40 -c 2 -i 7 -a 2 -x {6.0 2.0 0 ------- null}
h -t 0.7739672170149 -s 0 -d 2 -p ack -e 40 -c 2 -i 7 -a 2 -x {6.0 2.0 -1 ------- null}
r -t 0.775382013838808 -s 0 -d 3 -p ack -e 40 -c 3 -i 6 -a 3 -x {7.0 3.0 0 ------- null}
+ -t 0.775382013838808 -s 3 -d 0 -p exp -e 1000 -c 3 -i 10 -a 3 -x {3.0 7.0 0 ------- null}
- -t 0.775382013838808 -s 3 -d 0 -p exp -e 1000 -c 3 -i 10 -a 3 -x {3.0 7.0 0 ------- null}
h -t 0.775382013838808 -s 3 -d 0 -p exp -e 1000 -c 3 -i 10 -a 3 -x {3.0 7.0 -1 ------- null}
r -t 0.8242872170149 -s 0 -d 2 -p ack -e 40 -c 2 -i 7 -a 2 -x {6.0 2.0 0 ------- null}
+ -t 0.8242872170149 -s 2 -d 0 -p exp -e 1000 -c 2 -i 11 -a 2 -x {2.0 6.0 0 ------- null}
- -t 0.8242872170149 -s 2 -d 0 -p exp -e 1000 -c 2 -i 11 -a 2 -x {2.0 6.0 0 ------- null}
h -t 0.8242872170149 -s 2 -d 0 -p exp -e 1000 -c 2 -i 11 -a 2 -x {2.0 6.0 -1 ------- null}
r -t 0.833382013838808 -s 3 -d 0 -p exp -e 1000 -c 3 -i 10 -a 3 -x {3.0 7.0 0 ------- null}
+ -t 0.833382013838808 -s 0 -d 7 -p exp -e 1000 -c 3 -i 10 -a 3 -x {3.0 7.0 0 ------- null}
- -t 0.833382013838808 -s 0 -d 7 -p exp -e 1000 -c 3 -i 10 -a 3 -x {3.0 7.0 0 ------- null}
h -t 0.833382013838808 -s 0 -d 7 -p exp -e 1000 -c 3 -i 10 -a 3 -x {3.0 7.0 -1 ------- null}
r -t 0.8822872170149 -s 2 -d 0 -p exp -e 1000 -c 2 -i 11 -a 2 -x {2.0 6.0 0 ------- null}
+ -t 0.8822872170149 -s 0 -d 6 -p exp -e 1000 -c 2 -i 11 -a 2 -x {2.0 6.0 0 ------- null}
- -t 0.8822872170149 -s 0 -d 6 -p exp -e 1000 -c 2 -i 11 -a 2 -x {2.0 6.0 0 ------- null}
h -t 0.8822872170149 -s 0 -d 6 -p exp -e 1000 -c 2 -i 11 -a 2 -x {2.0 6.0 -1 ------- null}
r -t 0.94792 -s 0 -d 8 -p tcp -e 1000 -c 4 -i 8 -a 4 -x {4.0 8.0 1 ------- null}
+ -t 0.94792 -s 8 -d 0 -p ack -e 40 -c 4 -i 12 -a 4 -x {8.0 4.0 1 ------- null}
- -t 0.94792 -s 8 -d 0 -p ack -e 40 -c 4 -i 12 -a 4 -x {8.0 4.0 1 ------- null}
h -t 0.94792 -s 8 -d 0 -p ack -e 40 -c 4 -i 12 -a 4 -x {8.0 4.0 -1 ------- null}
r -t 0.99592 -s 0 -d 5 -p tcp -e 1500 -c 1 -i 9 -a 1 -x {1.0 5.0 1 ------- null}
+ -t 0.99592 -s 5 -d 0 -p ack -e 40 -c 1 -i 13 -a 1 -x {5.0 1.0 1 ------- null}
- -t 0.99592 -s 5 -d 0 -p ack -e 40 -c 1 -i 13 -a 1 -x {5.0 1.0 1 ------- null}
h -t 0.99592 -s 5 -d 0 -p ack -e 40 -c 1 -i 13 -a 1 -x {5.0 1.0 -1 ------- null}
r -t 1.07338201383881 -s 0 -d 7 -p exp -e 1000 -c 3 -i 10 -a 3 -x {3.0 7.0 0 ------- null}
+ -t 1.07338201383881 -s 7 -d 0 -p ack -e 40 -c 3 -i 14 -a 3 -x {7.0 3.0 1 ------- null}
- -t 1.07338201383881 -s 7 -d 0 -p ack -e 40 -c 3 -i 14 -a 3 -x {7.0 3.0 1 ------- null}
h -t 1.07338201383881 -s 7 -d 0 -p ack -e 40 -c 3 -i 14 -a 3 -x {7.0 3.0 -1 ------- null}
r -t 1.1222872170149 -s 0 -d 6 -p exp -e 1000 -c 2 -i 11 -a 2 -x {2.0 6.0 0 ------- null}
+ -t 1.1222872170149 -s 6 -d 0 -p ack -e 40 -c 2 -i 15 -a 2 -x {6.0 2.0 1 ------- null}
- -t 1.1222872170149 -s 6 -d 0 -p ack -e 40 -c 2 -i 15 -a 2 -x {6.0 2.0 1 ------- null}
h -t 1.1222872170149 -s 6 -d 0 -p ack -e 40 -c 2 -i 15 -a 2 -x {6.0 2.0 -1 ------- null}
r -t 1.14952 -s 8 -d 0 -p ack -e 40 -c 4 -i 12 -a 4 -x {8.0 4.0 1 ------- null}
+ -t 1.14952 -s 0 -d 4 -p ack -e 40 -c 4 -i 12 -a 4 -x {8.0 4.0 1 ------- null}
- -t 1.14952 -s 0 -d 4 -p ack -e 40 -c 4 -i 12 -a 4 -x {8.0 4.0 1 ------- null}
h -t 1.14952 -s 0 -d 4 -p ack -e 40 -c 4 -i 12 -a 4 -x {8.0 4.0 -1 ------- null}
r -t 1.19752 -s 5 -d 0 -p ack -e 40 -c 1 -i 13 -a 1 -x {5.0 1.0 1 ------- null}
+ -t 1.19752 -s 0 -d 1 -p ack -e 40 -c 1 -i 13 -a 1 -x {5.0 1.0 1 ------- null}
- -t 1.19752 -s 0 -d 1 -p ack -e 40 -c 1 -i 13 -a 1 -x {5.0 1.0 1 ------- null}
h -t 1.19752 -s 0 -d 1 -p ack -e 40 -c 1 -i 13 -a 1 -x {5.0 1.0 -1 ------- null}
r -t 1.19984 -s 0 -d 4 -p ack -e 40 -c 4 -i 12 -a 4 -x {8.0 4.0 1 ------- null}
+ -t 1.19984 -s 4 -d 0 -p tcp -e 1000 -c 4 -i 16 -a 4 -x {4.0 8.0 2 ------- null}
- -t 1.19984 -s 4 -d 0 -p tcp -e 1000 -c 4 -i 16 -a 4 -x {4.0 8.0 2 ------- null}
h -t 1.19984 -s 4 -d 0 -p tcp -e 1000 -c 4 -i 16 -a 4 -x {4.0 8.0 -1 ------- null}
+ -t 1.19984 -s 4 -d 0 -p tcp -e 1000 -c 4 -i 17 -a 4 -x {4.0 8.0 3 ------- null}
+ -t 1.19984 -s 4 -d 0 -p tcp -e 1000 -c 4 -i 18 -a 4 -x {4.0 8.0 4 ------- null}
- -t 1.20784 -s 4 -d 0 -p tcp -e 1000 -c 4 -i 17 -a 4 -x {4.0 8.0 3 ------- null}
h -t 1.20784 -s 4 -d 0 -p tcp -e 1000 -c 4 -i 17 -a 4 -x {4.0 8.0 -1 ------- null}
- -t 1.21584 -s 4 -d 0 -p tcp -e 1000 -c 4 -i 18 -a 4 -x {4.0 8.0 4 ------- null}
h -t 1.21584 -s 4 -d 0 -p tcp -e 1000 -c 4 -i 18 -a 4 -x {4.0 8.0 -1 ------- null}
r -t 1.24784 -s 0 -d 1 -p ack -e 40 -c 1 -i 13 -a 1 -x {5.0 1.0 1 ------- null}
+ -t 1.24784 -s 1 -d 0 -p tcp -e 1500 -c 1 -i 19 -a 1 -x {1.0 5.0 2 ------- null}
- -t 1.24784 -s 1 -d 0 -p tcp -e 1500 -c 1 -i 19 -a 1 -x {1.0 5.0 2 ------- null}
h -t 1.24784 -s 1 -d 0 -p tcp -e 1500 -c 1 -i 19 -a 1 -x {1.0 5.0 -1 ------- null}
+ -t 1.24784 -s 1 -d 0 -p tcp -e 1500 -c 1 -i 20 -a 1 -x {1.0 5.0 3 ------- null}
+ -t 1.24784 -s 1 -d 0 -p tcp -e 1500 -c 1 -i 21 -a 1 -x {1.0 5.0 4 ------- null}
r -t 1.25784 -s 4 -d 0 -p tcp -e 1000 -c 4 -i 16 -a 4 -x {4.0 8.0 2 ------- null}
+ -t 1.25784 -s 0 -d 8 -p tcp -e 1000 -c 4 -i 16 -a 4 -x {4.0 8.0 2 ------- null}
- -t 1.25784 -s 0 -d 8 -p tcp -e 1000 -c 4 -i 16 -a 4 -x {4.0 8.0 2 ------- null}
h -t 1.25784 -s 0 -d 8 -p tcp -e 1000 -c 4 -i 16 -a 4 -x {4.0 8.0 -1 ------- null}
- -t 1.25984 -s 1 -d 0 -p tcp -e 1500 -c 1 -i 20 -a 1 -x {1.0 5.0 3 ------- null}
h -t 1.25984 -s 1 -d 0 -p tcp -e 1500 -c 1 -i 20 -a 1 -x {1.0 5.0 -1 ------- null}
r -t 1.26584 -s 4 -d 0 -p tcp -e 1000 -c 4 -i 17 -a 4 -x {4.0 8.0 3 ------- null}
+ -t 1.26584 -s 0 -d 8 -p tcp -e 1000 -c 4 -i 17 -a 4 -x {4.0 8.0 3 ------- null}
- -t 1.27184 -s 1 -d 0 -p tcp -e 1500 -c 1 -i 21 -a 1 -x {1.0 5.0 4 ------- null}
h -t 1.27184 -s 1 -d 0 -p tcp -e 1500 -c 1 -i 21 -a 1 -x {1.0 5.0 -1 ------- null}
r -t 1.27384 -s 4 -d 0 -p tcp -e 1000 -c 4 -i 18 -a 4 -x {4.0 8.0 4 ------- null}
+ -t 1.27384 -s 0 -d 8 -p tcp -e 1000 -c 4 -i 18 -a 4 -x {4.0 8.0 4 ------- null}
r -t 1.27498201383881 -s 7 -d 0 -p ack -e 40 -c 3 -i 14 -a 3 -x {7.0 3.0 1 ------- null}
+ -t 1.27498201383881 -s 0 -d 3 -p ack -e 40 -c 3 -i 14 -a 3 -x {7.0 3.0 1 ------- null}
- -t 1.27498201383881 -s 0 -d 3 -p ack -e 40 -c 3 -i 14 -a 3 -x {7.0 3.0 1 ------- null}
h -t 1.27498201383881 -s 0 -d 3 -p ack -e 40 -c 3 -i 14 -a 3 -x {7.0 3.0 -1 ------- null}
- -t 1.29784 -s 0 -d 8 -p tcp -e 1000 -c 4 -i 17 -a 4 -x {4.0 8.0 3 ------- null}
h -t 1.29784 -s 0 -d 8 -p tcp -e 1000 -c 4 -i 17 -a 4 -x {4.0 8.0 -1 ------- null}
r -t 1.30984 -s 1 -d 0 -p tcp -e 1500 -c 1 -i 19 -a 1 -x {1.0 5.0 2 ------- null}
+ -t 1.30984 -s 0 -d 5 -p tcp -e 1500 -c 1 -i 19 -a 1 -x {1.0 5.0 2 ------- null}
- -t 1.30984 -s 0 -d 5 -p tcp -e 1500 -c 1 -i 19 -a 1 -x {1.0 5.0 2 ------- null}
h -t 1.30984 -s 0 -d 5 -p tcp -e 1500 -c 1 -i 19 -a 1 -x {1.0 5.0 -1 ------- null}
r -t 1.32184 -s 1 -d 0 -p tcp -e 1500 -c 1 -i 20 -a 1 -x {1.0 5.0 3 ------- null}
+ -t 1.32184 -s 0 -d 5 -p tcp -e 1500 -c 1 -i 20 -a 1 -x {1.0 5.0 3 ------- null}
r -t 1.3238872170149 -s 6 -d 0 -p ack -e 40 -c 2 -i 15 -a 2 -x {6.0 2.0 1 ------- null}
+ -t 1.3238872170149 -s 0 -d 2 -p ack -e 40 -c 2 -i 15 -a 2 -x {6.0 2.0 1 ------- null}
- -t 1.3238872170149 -s 0 -d 2 -p ack -e 40 -c 2 -i 15 -a 2 -x {6.0 2.0 1 ------- null}
h -t 1.3238872170149 -s 0 -d 2 -p ack -e 40 -c 2 -i 15 -a 2 -x {6.0 2.0 -1 ------- null}
r -t 1.32530201383881 -s 0 -d 3 -p ack -e 40 -c 3 -i 14 -a 3 -x {7.0 3.0 1 ------- null}
+ -t 1.32530201383881 -s 3 -d 0 -p exp -e 1000 -c 3 -i 22 -a 3 -x {3.0 7.0 0 ------- null}
- -t 1.32530201383881 -s 3 -d 0 -p exp -e 1000 -c 3 -i 22 -a 3 -x {3.0 7.0 0 ------- null}
h -t 1.32530201383881 -s 3 -d 0 -p exp -e 1000 -c 3 -i 22 -a 3 -x {3.0 7.0 -1 ------- null}
+ -t 1.32530201383881 -s 3 -d 0 -p exp -e 1000 -c 3 -i 23 -a 3 -x {3.0 7.0 0 ------- null}
+ -t 1.32530201383881 -s 3 -d 0 -p exp -e 1000 -c 3 -i 24 -a 3 -x {3.0 7.0 0 ------- null}
- -t 1.33330201383881 -s 3 -d 0 -p exp -e 1000 -c 3 -i 23 -a 3 -x {3.0 7.0 0 ------- null}
h -t 1.33330201383881 -s 3 -d 0 -p exp -e 1000 -c 3 -i 23 -a 3 -x {3.0 7.0 -1 ------- null}
r -t 1.33384 -s 1 -d 0 -p tcp -e 1500 -c 1 -i 21 -a 1 -x {1.0 5.0 4 ------- null}
+ -t 1.33384 -s 0 -d 5 -p tcp -e 1500 -c 1 -i 21 -a 1 -x {1.0 5.0 4 ------- null}
- -t 1.33784 -s 0 -d 8 -p tcp -e 1000 -c 4 -i 18 -a 4 -x {4.0 8.0 4 ------- null}
h -t 1.33784 -s 0 -d 8 -p tcp -e 1000 -c 4 -i 18 -a 4 -x {4.0 8.0 -1 ------- null}
- -t 1.34130201383881 -s 3 -d 0 -p exp -e 1000 -c 3 -i 24 -a 3 -x {3.0 7.0 0 ------- null}
h -t 1.34130201383881 -s 3 -d 0 -p exp -e 1000 -c 3 -i 24 -a 3 -x {3.0 7.0 -1 ------- null}
- -t 1.36984 -s 0 -d 5 -p tcp -e 1500 -c 1 -i 20 -a 1 -x {1.0 5.0 3 ------- null}
h -t 1.36984 -s 0 -d 5 -p tcp -e 1500 -c 1 -i 20 -a 1 -x {1.0 5.0 -1 ------- null}
r -t 1.3742072170149 -s 0 -d 2 -p ack -e 40 -c 2 -i 15 -a 2 -x {6.0 2.0 1 ------- null}
+ -t 1.3742072170149 -s 2 -d 0 -p exp -e 1000 -c 2 -i 25 -a 2 -x {2.0 6.0 0 ------- null}
- -t 1.3742072170149 -s 2 -d 0 -p exp -e 1000 -c 2 -i 25 -a 2 -x {2.0 6.0 0 ------- null}
h -t 1.3742072170149 -s 2 -d 0 -p exp -e 1000 -c 2 -i 25 -a 2 -x {2.0 6.0 -1 ------- null}
+ -t 1.3742072170149 -s 2 -d 0 -p exp -e 1000 -c 2 -i 26 -a 2 -x {2.0 6.0 0 ------- null}
+ -t 1.3742072170149 -s 2 -d 0 -p exp -e 1000 -c 2 -i 27 -a 2 -x {2.0 6.0 0 ------- null}
- -t 1.3822072170149 -s 2 -d 0 -p exp -e 1000 -c 2 -i 26 -a 2 -x {2.0 6.0 0 ------- null}
h -t 1.3822072170149 -s 2 -d 0 -p exp -e 1000 -c 2 -i 26 -a 2 -x {2.0 6.0 -1 ------- null}
r -t 1.38330201383881 -s 3 -d 0 -p exp -e 1000 -c 3 -i 22 -a 3 -x {3.0 7.0 0 ------- null}
+ -t 1.38330201383881 -s 0 -d 7 -p exp -e 1000 -c 3 -i 22 -a 3 -x {3.0 7.0 0 ------- null}
- -t 1.38330201383881 -s 0 -d 7 -p exp -e 1000 -c 3 -i 22 -a 3 -x {3.0 7.0 0 ------- null}
h -t 1.38330201383881 -s 0 -d 7 -p exp -e 1000 -c 3 -i 22 -a 3 -x {3.0 7.0 -1 ------- null}
- -t 1.3902072170149 -s 2 -d 0 -p exp -e 1000 -c 2 -i 27 -a 2 -x {2.0 6.0 0 ------- null}
h -t 1.3902072170149 -s 2 -d 0 -p exp -e 1000 -c 2 -i 27 -a 2 -x {2.0 6.0 -1 ------- null}
r -t 1.39130201383881 -s 3 -d 0 -p exp -e 1000 -c 3 -i 23 -a 3 -x {3.0 7.0 0 ------- null}
+ -t 1.39130201383881 -s 0 -d 7 -p exp -e 1000 -c 3 -i 23 -a 3 -x {3.0 7.0 0 ------- null}
r -t 1.39930201383881 -s 3 -d 0 -p exp -e 1000 -c 3 -i 24 -a 3 -x {3.0 7.0 0 ------- null}
+ -t 1.39930201383881 -s 0 -d 7 -p exp -e 1000 -c 3 -i 24 -a 3 -x {3.0 7.0 0 ------- null}
- -t 1.42330201383881 -s 0 -d 7 -p exp -e 1000 -c 3 -i 23 -a 3 -x {3.0 7.0 0 ------- null}
h -t 1.42330201383881 -s 0 -d 7 -p exp -e 1000 -c 3 -i 23 -a 3 -x {3.0 7.0 -1 ------- null}
- -t 1.42984 -s 0 -d 5 -p tcp -e 1500 -c 1 -i 21 -a 1 -x {1.0 5.0 4 ------- null}
h -t 1.42984 -s 0 -d 5 -p tcp -e 1500 -c 1 -i 21 -a 1 -x {1.0 5.0 -1 ------- null}
r -t 1.4322072170149 -s 2 -d 0 -p exp -e 1000 -c 2 -i 25 -a 2 -x {2.0 6.0 0 ------- null}
+ -t 1.4322072170149 -s 0 -d 6 -p exp -e 1000 -c 2 -i 25 -a 2 -x {2.0 6.0 0 ------- null}
- -t 1.4322072170149 -s 0 -d 6 -p exp -e 1000 -c 2 -i 25 -a 2 -x {2.0 6.0 0 ------- null}
h -t 1.4322072170149 -s 0 -d 6 -p exp -e 1000 -c 2 -i 25 -a 2 -x {2.0 6.0 -1 ------- null}
r -t 1.4402072170149 -s 2 -d 0 -p exp -e 1000 -c 2 -i 26 -a 2 -x {2.0 6.0 0 ------- null}
+ -t 1.4402072170149 -s 0 -d 6 -p exp -e 1000 -c 2 -i 26 -a 2 -x {2.0 6.0 0 ------- null}
r -t 1.4482072170149 -s 2 -d 0 -p exp -e 1000 -c 2 -i 27 -a 2 -x {2.0 6.0 0 ------- null}
+ -t 1.4482072170149 -s 0 -d 6 -p exp -e 1000 -c 2 -i 27 -a 2 -x {2.0 6.0 0 ------- null}
- -t 1.46330201383881 -s 0 -d 7 -p exp -e 1000 -c 3 -i 24 -a 3 -x {3.0 7.0 0 ------- null}
h -t 1.46330201383881 -s 0 -d 7 -p exp -e 1000 -c 3 -i 24 -a 3 -x {3.0 7.0 -1 ------- null}
- -t 1.4722072170149 -s 0 -d 6 -p exp -e 1000 -c 2 -i 26 -a 2 -x {2.0 6.0 0 ------- null}
h -t 1.4722072170149 -s 0 -d 6 -p exp -e 1000 -c 2 -i 26 -a 2 -x {2.0 6.0 -1 ------- null}
r -t 1.49784 -s 0 -d 8 -p tcp -e 1000 -c 4 -i 16 -a 4 -x {4.0 8.0 2 ------- null}
+ -t 1.49784 -s 8 -d 0 -p ack -e 40 -c 4 -i 28 -a 4 -x {8.0 4.0 2 ------- null}
- -t 1.49784 -s 8 -d 0 -p ack -e 40 -c 4 -i 28 -a 4 -x {8.0 4.0 2 ------- null}
h -t 1.49784 -s 8 -d 0 -p ack -e 40 -c 4 -i 28 -a 4 -x {8.0 4.0 -1 ------- null}
- -t 1.5122072170149 -s 0 -d 6 -p exp -e 1000 -c 2 -i 27 -a 2 -x {2.0 6.0 0 ------- null}
h -t 1.5122072170149 -s 0 -d 6 -p exp -e 1000 -c 2 -i 27 -a 2 -x {2.0 6.0 -1 ------- null}
r -t 1.53784 -s 0 -d 8 -p tcp -e 1000 -c 4 -i 17 -a 4 -x {4.0 8.0 3 ------- null}
+ -t 1.53784 -s 8 -d 0 -p ack -e 40 -c 4 -i 29 -a 4 -x {8.0 4.0 3 ------- null}
- -t 1.53784 -s 8 -d 0 -p ack -e 40 -c 4 -i 29 -a 4 -x {8.0 4.0 3 ------- null}
h -t 1.53784 -s 8 -d 0 -p ack -e 40 -c 4 -i 29 -a 4 -x {8.0 4.0 -1 ------- null}
r -t 1.56984 -s 0 -d 5 -p tcp -e 1500 -c 1 -i 19 -a 1 -x {1.0 5.0 2 ------- null}
+ -t 1.56984 -s 5 -d 0 -p ack -e 40 -c 1 -i 30 -a 1 -x {5.0 1.0 2 ------- null}
- -t 1.56984 -s 5 -d 0 -p ack -e 40 -c 1 -i 30 -a 1 -x {5.0 1.0 2 ------- null}
h -t 1.56984 -s 5 -d 0 -p ack -e 40 -c 1 -i 30 -a 1 -x {5.0 1.0 -1 ------- null}
r -t 1.57784 -s 0 -d 8 -p tcp -e 1000 -c 4 -i 18 -a 4 -x {4.0 8.0 4 ------- null}
+ -t 1.57784 -s 8 -d 0 -p ack -e 40 -c 4 -i 31 -a 4 -x {8.0 4.0 4 ------- null}
- -t 1.57784 -s 8 -d 0 -p ack -e 40 -c 4 -i 31 -a 4 -x {8.0 4.0 4 ------- null}
h -t 1.57784 -s 8 -d 0 -p ack -e 40 -c 4 -i 31 -a 4 -x {8.0 4.0 -1 ------- null}
r -t 1.62330201383881 -s 0 -d 7 -p exp -e 1000 -c 3 -i 22 -a 3 -x {3.0 7.0 0 ------- null}
+ -t 1.62330201383881 -s 7 -d 0 -p ack -e 40 -c 3 -i 32 -a 3 -x {7.0 3.0 2 ------- null}
- -t 1.62330201383881 -s 7 -d 0 -p ack -e 40 -c 3 -i 32 -a 3 -x {7.0 3.0 2 ------- null}
h -t 1.62330201383881 -s 7 -d 0 -p ack -e 40 -c 3 -i 32 -a 3 -x {7.0 3.0 -1 ------- null}
r -t 1.62984 -s 0 -d 5 -p tcp -e 1500 -c 1 -i 20 -a 1 -x {1.0 5.0 3 ------- null}
+ -t 1.62984 -s 5 -d 0 -p ack -e 40 -c 1 -i 33 -a 1 -x {5.0 1.0 3 ------- null}
- -t 1.62984 -s 5 -d 0 -p ack -e 40 -c 1 -i 33 -a 1 -x {5.0 1.0 3 ------- null}
h -t 1.62984 -s 5 -d 0 -p ack -e 40 -c 1 -i 33 -a 1 -x {5.0 1.0 -1 ------- null}
r -t 1.66330201383881 -s 0 -d 7 -p exp -e 1000 -c 3 -i 23 -a 3 -x {3.0 7.0 0 ------- null}
+ -t 1.66330201383881 -s 7 -d 0 -p ack -e 40 -c 3 -i 34 -a 3 -x {7.0 3.0 3 ------- null}
- -t 1.66330201383881 -s 7 -d 0 -p ack -e 40 -c 3 -i 34 -a 3 -x {7.0 3.0 3 ------- null}
h -t 1.66330201383881 -s 7 -d 0 -p ack -e 40 -c 3 -i 34 -a 3 -x {7.0 3.0 -1 ------- null}
r -t 1.6722072170149 -s 0 -d 6 -p exp -e 1000 -c 2 -i 25 -a 2 -x {2.0 6.0 0 ------- null}
+ -t 1.6722072170149 -s 6 -d 0 -p ack -e 40 -c 2 -i 35 -a 2 -x {6.0 2.0 2 ------- null}
- -t 1.6722072170149 -s 6 -d 0 -p ack -e 40 -c 2 -i 35 -a 2 -x {6.0 2.0 2 ------- null}
h -t 1.6722072170149 -s 6 -d 0 -p ack -e 40 -c 2 -i 35 -a 2 -x {6.0 2.0 -1 ------- null}
r -t 1.68984 -s 0 -d 5 -p tcp -e 1500 -c 1 -i 21 -a 1 -x {1.0 5.0 4 ------- null}
+ -t 1.68984 -s 5 -d 0 -p ack -e 40 -c 1 -i 36 -a 1 -x {5.0 1.0 4 ------- null}
- -t 1.68984 -s 5 -d 0 -p ack -e 40 -c 1 -i 36 -a 1 -x {5.0 1.0 4 ------- null}
h -t 1.68984 -s 5 -d 0 -p ack -e 40 -c 1 -i 36 -a 1 -x {5.0 1.0 -1 ------- null}
r -t 1.69944 -s 8 -d 0 -p ack -e 40 -c 4 -i 28 -a 4 -x {8.0 4.0 2 ------- null}
+ -t 1.69944 -s 0 -d 4 -p ack -e 40 -c 4 -i 28 -a 4 -x {8.0 4.0 2 ------- null}
- -t 1.69944 -s 0 -d 4 -p ack -e 40 -c 4 -i 28 -a 4 -x {8.0 4.0 2 ------- null}
h -t 1.69944 -s 0 -d 4 -p ack -e 40 -c 4 -i 28 -a 4 -x {8.0 4.0 -1 ------- null}
r -t 1.70330201383881 -s 0 -d 7 -p exp -e 1000 -c 3 -i 24 -a 3 -x {3.0 7.0 0 ------- null}
+ -t 1.70330201383881 -s 7 -d 0 -p ack -e 40 -c 3 -i 37 -a 3 -x {7.0 3.0 4 ------- null}
- -t 1.70330201383881 -s 7 -d 0 -p ack -e 40 -c 3 -i 37 -a 3 -x {7.0 3.0 4 ------- null}
h -t 1.70330201383881 -s 7 -d 0 -p ack -e 40 -c 3 -i 37 -a 3 -x {7.0 3.0 -1 ------- null}
r -t 1.7122072170149 -s 0 -d 6 -p exp -e 1000 -c 2 -i 26 -a 2 -x {2.0 6.0 0 ------- null}
+ -t 1.7122072170149 -s 6 -d 0 -p ack -e 40 -c 2 -i 38 -a 2 -x {6.0 2.0 3 ------- null}
- -t 1.7122072170149 -s 6 -d 0 -p ack -e 40 -c 2 -i 38 -a 2 -x {6.0 2.0 3 ------- null}
h -t 1.7122072170149 -s 6 -d 0 -p ack -e 40 -c 2 -i 38 -a 2 -x {6.0 2.0 -1 ------- null}
r -t 1.73944 -s 8 -d 0 -p ack -e 40 -c 4 -i 29 -a 4 -x {8.0 4.0 3 ------- null}
+ -t 1.73944 -s 0 -d 4 -p ack -e 40 -c 4 -i 29 -a 4 -x {8.0 4.0 3 ------- null}
- -t 1.73944 -s 0 -d 4 -p ack -e 40 -c 4 -i 29 -a 4 -x {8.0 4.0 3 ------- null}
h -t 1.73944 -s 0 -d 4 -p ack -e 40 -c 4 -i 29 -a 4 -x {8.0 4.0 -1 ------- null}
r -t 1.74976 -s 0 -d 4 -p ack -e 40 -c 4 -i 28 -a 4 -x {8.0 4.0 2 ------- null}
+ -t 1.74976 -s 4 -d 0 -p tcp -e 1000 -c 4 -i 39 -a 4 -x {4.0 8.0 5 ------- null}
- -t 1.74976 -s 4 -d 0 -p tcp -e 1000 -c 4 -i 39 -a 4 -x {4.0 8.0 5 ------- null}
h -t 1.74976 -s 4 -d 0 -p tcp -e 1000 -c 4 -i 39 -a 4 -x {4.0 8.0 -1 ------- null}
r -t 1.7522072170149 -s 0 -d 6 -p exp -e 1000 -c 2 -i 27 -a 2 -x {2.0 6.0 0 ------- null}
+ -t 1.7522072170149 -s 6 -d 0 -p ack -e 40 -c 2 -i 40 -a 2 -x {6.0 2.0 4 ------- null}
- -t 1.7522072170149 -s 6 -d 0 -p ack -e 40 -c 2 -i 40 -a 2 -x {6.0 2.0 4 ------- null}
h -t 1.7522072170149 -s 6 -d 0 -p ack -e 40 -c 2 -i 40 -a 2 -x {6.0 2.0 -1 ------- null}
r -t 1.77144 -s 5 -d 0 -p ack -e 40 -c 1 -i 30 -a 1 -x {5.0 1.0 2 ------- null}
+ -t 1.77144 -s 0 -d 1 -p ack -e 40 -c 1 -i 30 -a 1 -x {5.0 1.0 2 ------- null}
- -t 1.77144 -s 0 -d 1 -p ack -e 40 -c 1 -i 30 -a 1 -x {5.0 1.0 2 ------- null}
h -t 1.77144 -s 0 -d 1 -p ack -e 40 -c 1 -i 30 -a 1 -x {5.0 1.0 -1 ------- null}
r -t 1.77944 -s 8 -d 0 -p ack -e 40 -c 4 -i 31 -a 4 -x {8.0 4.0 4 ------- null}
+ -t 1.77944 -s 0 -d 4 -p ack -e 40 -c 4 -i 31 -a 4 -x {8.0 4.0 4 ------- null}
- -t 1.77944 -s 0 -d 4 -p ack -e 40 -c 4 -i 31 -a 4 -x {8.0 4.0 4 ------- null}
h -t 1.77944 -s 0 -d 4 -p ack -e 40 -c 4 -i 31 -a 4 -x {8.0 4.0 -1 ------- null}
r -t 1.78976 -s 0 -d 4 -p ack -e 40 -c 4 -i 29 -a 4 -x {8.0 4.0 3 ------- null}
+ -t 1.78976 -s 4 -d 0 -p tcp -e 1000 -c 4 -i 41 -a 4 -x {4.0 8.0 6 ------- null}
- -t 1.78976 -s 4 -d 0 -p tcp -e 1000 -c 4 -i 41 -a 4 -x {4.0 8.0 6 ------- null}
h -t 1.78976 -s 4 -d 0 -p tcp -e 1000 -c 4 -i 41 -a 4 -x {4.0 8.0 -1 ------- null}
r -t 1.80776 -s 4 -d 0 -p tcp -e 1000 -c 4 -i 39 -a 4 -x {4.0 8.0 5 ------- null}
+ -t 1.80776 -s 0 -d 8 -p tcp -e 1000 -c 4 -i 39 -a 4 -x {4.0 8.0 5 ------- null}
- -t 1.80776 -s 0 -d 8 -p tcp -e 1000 -c 4 -i 39 -a 4 -x {4.0 8.0 5 ------- null}
h -t 1.80776 -s 0 -d 8 -p tcp -e 1000 -c 4 -i 39 -a 4 -x {4.0 8.0 -1 ------- null}
r -t 1.82176 -s 0 -d 1 -p ack -e 40 -c 1 -i 30 -a 1 -x {5.0 1.0 2 ------- null}
+ -t 1.82176 -s 1 -d 0 -p tcp -e 1500 -c 1 -i 42 -a 1 -x {1.0 5.0 5 ------- null}
- -t 1.82176 -s 1 -d 0 -p tcp -e 1500 -c 1 -i 42 -a 1 -x {1.0 5.0 5 ------- null}
h -t 1.82176 -s 1 -d 0 -p tcp -e 1500 -c 1 -i 42 -a 1 -x {1.0 5.0 -1 ------- null}
r -t 1.82490201383881 -s 7 -d 0 -p ack -e 40 -c 3 -i 32 -a 3 -x {7.0 3.0 2 ------- null}
+ -t 1.82490201383881 -s 0 -d 3 -p ack -e 40 -c 3 -i 32 -a 3 -x {7.0 3.0 2 ------- null}
- -t 1.82490201383881 -s 0 -d 3 -p ack -e 40 -c 3 -i 32 -a 3 -x {7.0 3.0 2 ------- null}
h -t 1.82490201383881 -s 0 -d 3 -p ack -e 40 -c 3 -i 32 -a 3 -x {7.0 3.0 -1 ------- null}
r -t 1.82976 -s 0 -d 4 -p ack -e 40 -c 4 -i 31 -a 4 -x {8.0 4.0 4 ------- null}
+ -t 1.82976 -s 4 -d 0 -p tcp -e 1000 -c 4 -i 43 -a 4 -x {4.0 8.0 7 ------- null}
- -t 1.82976 -s 4 -d 0 -p tcp -e 1000 -c 4 -i 43 -a 4 -x {4.0 8.0 7 ------- null}
h -t 1.82976 -s 4 -d 0 -p tcp -e 1000 -c 4 -i 43 -a 4 -x {4.0 8.0 -1 ------- null}
r -t 1.83144 -s 5 -d 0 -p ack -e 40 -c 1 -i 33 -a 1 -x {5.0 1.0 3 ------- null}
+ -t 1.83144 -s 0 -d 1 -p ack -e 40 -c 1 -i 33 -a 1 -x {5.0 1.0 3 ------- null}
- -t 1.83144 -s 0 -d 1 -p ack -e 40 -c 1 -i 33 -a 1 -x {5.0 1.0 3 ------- null}
h -t 1.83144 -s 0 -d 1 -p ack -e 40 -c 1 -i 33 -a 1 -x {5.0 1.0 -1 ------- null}
r -t 1.84776 -s 4 -d 0 -p tcp -e 1000 -c 4 -i 41 -a 4 -x {4.0 8.0 6 ------- null}
+ -t 1.84776 -s 0 -d 8 -p tcp -e 1000 -c 4 -i 41 -a 4 -x {4.0 8.0 6 ------- null}
- -t 1.84776 -s 0 -d 8 -p tcp -e 1000 -c 4 -i 41 -a 4 -x {4.0 8.0 6 ------- null}
h -t 1.84776 -s 0 -d 8 -p tcp -e 1000 -c 4 -i 41 -a 4 -x {4.0 8.0 -1 ------- null}
r -t 1.86490201383881 -s 7 -d 0 -p ack -e 40 -c 3 -i 34 -a 3 -x {7.0 3.0 3 ------- null}
+ -t 1.86490201383881 -s 0 -d 3 -p ack -e 40 -c 3 -i 34 -a 3 -x {7.0 3.0 3 ------- null}
- -t 1.86490201383881 -s 0 -d 3 -p ack -e 40 -c 3 -i 34 -a 3 -x {7.0 3.0 3 ------- null}
h -t 1.86490201383881 -s 0 -d 3 -p ack -e 40 -c 3 -i 34 -a 3 -x {7.0 3.0 -1 ------- null}
r -t 1.8738072170149 -s 6 -d 0 -p ack -e 40 -c 2 -i 35 -a 2 -x {6.0 2.0 2 ------- null}
+ -t 1.8738072170149 -s 0 -d 2 -p ack -e 40 -c 2 -i 35 -a 2 -x {6.0 2.0 2 ------- null}
- -t 1.8738072170149 -s 0 -d 2 -p ack -e 40 -c 2 -i 35 -a 2 -x {6.0 2.0 2 ------- null}
h -t 1.8738072170149 -s 0 -d 2 -p ack -e 40 -c 2 -i 35 -a 2 -x {6.0 2.0 -1 ------- null}
r -t 1.87522201383881 -s 0 -d 3 -p ack -e 40 -c 3 -i 32 -a 3 -x {7.0 3.0 2 ------- null}
+ -t 1.87522201383881 -s 3 -d 0 -p exp -e 1000 -c 3 -i 44 -a 3 -x {3.0 7.0 0 ------- null}
- -t 1.87522201383881 -s 3 -d 0 -p exp -e 1000 -c 3 -i 44 -a 3 -x {3.0 7.0 0 ------- null}
h -t 1.87522201383881 -s 3 -d 0 -p exp -e 1000 -c 3 -i 44 -a 3 -x {3.0 7.0 -1 ------- null}
r -t 1.88176 -s 0 -d 1 -p ack -e 40 -c 1 -i 33 -a 1 -x {5.0 1.0 3 ------- null}
+ -t 1.88176 -s 1 -d 0 -p tcp -e 1500 -c 1 -i 45 -a 1 -x {1.0 5.0 6 ------- null}
- -t 1.88176 -s 1 -d 0 -p tcp -e 1500 -c 1 -i 45 -a 1 -x {1.0 5.0 6 ------- null}
h -t 1.88176 -s 1 -d 0 -p tcp -e 1500 -c 1 -i 45 -a 1 -x {1.0 5.0 -1 ------- null}
r -t 1.88376 -s 1 -d 0 -p tcp -e 1500 -c 1 -i 42 -a 1 -x {1.0 5.0 5 ------- null}
+ -t 1.88376 -s 0 -d 5 -p tcp -e 1500 -c 1 -i 42 -a 1 -x {1.0 5.0 5 ------- null}
- -t 1.88376 -s 0 -d 5 -p tcp -e 1500 -c 1 -i 42 -a 1 -x {1.0 5.0 5 ------- null}
h -t 1.88376 -s 0 -d 5 -p tcp -e 1500 -c 1 -i 42 -a 1 -x {1.0 5.0 -1 ------- null}
r -t 1.88776 -s 4 -d 0 -p tcp -e 1000 -c 4 -i 43 -a 4 -x {4.0 8.0 7 ------- null}
+ -t 1.88776 -s 0 -d 8 -p tcp -e 1000 -c 4 -i 43 -a 4 -x {4.0 8.0 7 ------- null}
- -t 1.88776 -s 0 -d 8 -p tcp -e 1000 -c 4 -i 43 -a 4 -x {4.0 8.0 7 ------- null}
h -t 1.88776 -s 0 -d 8 -p tcp -e 1000 -c 4 -i 43 -a 4 -x {4.0 8.0 -1 ------- null}
r -t 1.89144 -s 5 -d 0 -p ack -e 40 -c 1 -i 36 -a 1 -x {5.0 1.0 4 ------- null}
+ -t 1.89144 -s 0 -d 1 -p ack -e 40 -c 1 -i 36 -a 1 -x {5.0 1.0 4 ------- null}
- -t 1.89144 -s 0 -d 1 -p ack -e 40 -c 1 -i 36 -a 1 -x {5.0 1.0 4 ------- null}
h -t 1.89144 -s 0 -d 1 -p ack -e 40 -c 1 -i 36 -a 1 -x {5.0 1.0 -1 ------- null}
r -t 1.90490201383881 -s 7 -d 0 -p ack -e 40 -c 3 -i 37 -a 3 -x {7.0 3.0 4 ------- null}
+ -t 1.90490201383881 -s 0 -d 3 -p ack -e 40 -c 3 -i 37 -a 3 -x {7.0 3.0 4 ------- null}
- -t 1.90490201383881 -s 0 -d 3 -p ack -e 40 -c 3 -i 37 -a 3 -x {7.0 3.0 4 ------- null}