+ 0.1 1 0 tcp 1500 ------- 1 1.0 5.0 0 0
- 0.1 1 0 tcp 1500 ------- 1 1.0 5.0 0 0
+ 0.1 4 0 tcp 1000 ------- 4 4.0 8.0 0 1
- 0.1 4 0 tcp 1000 ------- 4 4.0 8.0 0 1
r 0.158 4 0 tcp 1000 ------- 4 4.0 8.0 0 1
+ 0.158 0 8 tcp 1000 ------- 4 4.0 8.0 0 1
- 0.158 0 8 tcp 1000 ------- 4 4.0 8.0 0 1
r 0.162 1 0 tcp 1500 ------- 1 1.0 5.0 0 0
+ 0.162 0 5 tcp 1500 ------- 1 1.0 5.0 0 0
- 0.162 0 5 tcp 1500 ------- 1 1.0 5.0 0 0
+ 0.225462 3 0 exp 1000 ------- 3 3.0 7.0 0 2
- 0.225462 3 0 exp 1000 ------- 3 3.0 7.0 0 2
+ 0.274367 2 0 exp 1000 ------- 2 2.0 6.0 0 3
- 0.274367 2 0 exp 1000 ------- 2 2.0 6.0 0 3
r 0.283462 3 0 exp 1000 ------- 3 3.0 7.0 0 2
+ 0.283462 0 7 exp 1000 ------- 3 3.0 7.0 0 2
- 0.283462 0 7 exp 1000 ------- 3 3.0 7.0 0 2
r 0.332367 2 0 exp 1000 ------- 2 2.0 6.0 0 3
+ 0.332367 0 6 exp 1000 ------- 2 2.0 6.0 0 3
- 0.332367 0 6 exp 1000 ------- 2 2.0 6.0 0 3
r 0.398 0 8 tcp 1000 ------- 4 4.0 8.0 0 1
+ 0.398 8 0 ack 40 ------- 4 8.0 4.0 0 4
- 0.398 8 0 ack 40 ------- 4 8.0 4.0 0 4
r 0.422 0 5 tcp 1500 ------- 1 1.0 5.0 0 0
+ 0.422 5 0 ack 40 ------- 1 5.0 1.0 0 5
- 0.422 5 0 ack 40 ------- 1 5.0 1.0 0 5
r 0.523462 0 7 exp 1000 ------- 3 3.0 7.0 0 2
+ 0.523462 7 0 ack 40 ------- 3 7.0 3.0 0 6
- 0.523462 7 0 ack 40 ------- 3 7.0 3.0 0 6
r 0.572367 0 6 exp 1000 ------- 2 2.0 6.0 0 3
+ 0.572367 6 0 ack 40 ------- 2 6.0 2.0 0 7
- 0.572367 6 0 ack 40 ------- 2 6.0 2.0 0 7
r 0.5996 8 0 ack 40 ------- 4 8.0 4.0 0 4
+ 0.5996 0 4 ack 40 ------- 4 8.0 4.0 0 4
- 0.5996 0 4 ack 40 ------- 4 8.0 4.0 0 4
r 0.6236 5 0 ack 40 ------- 1 5.0 1.0 0 5
+ 0.6236 0 1 ack 40 ------- 1 5.0 1.0 0 5
- 0.6236 0 1 ack 40 ------- 1 5.0 1.0 0 5
r 0.64992 0 4 ack 40 ------- 4 8.0 4.0 0 4
+ 0.64992 4 0 tcp 1000 ------- 4 4.0 8.0 1 8
- 0.64992 4 0 tcp 1000 ------- 4 4.0 8.0 1 8
r 0.67392 0 1 ack 40 ------- 1 5.0 1.0 0 5
+ 0.67392 1 0 tcp 1500 ------- 1 1.0 5.0 1 9
- 0.67392 1 0 tcp 1500 ------- 1 1.0 5.0 1 9
r 0.70792 4 0 tcp 1000 ------- 4 4.0 8.0 1 8
+ 0.70792 0 8 tcp 1000 ------- 4 4.0 8.0 1 8
- 0.70792 0 8 tcp 1000 ------- 4 4.0 8.0 1 8
r 0.725062 7 0 ack 40 ------- 3 7.0 3.0 0 6
+ 0.725062 0 3 ack 40 ------- 3 7.0 3.0 0 6
- 0.725062 0 3 ack 40 ------- 3 7.0 3.0 0 6
r 0.73592 1 0 tcp 1500 ------- 1 1.0 5.0 1 9
+ 0.73592 0 5 tcp 1500 ------- 1 1.0 5.0 1 9
- 0.73592 0 5 tcp 1500 ------- 1 1.0 5.0 1 9
r 0.773967 6 0 ack 40 ------- 2 6.0 2.0 0 7
+ 0.773967 0 2 ack 40 ------- 2 6.0 2.0 0 7
- 0.773967 0 2 ack 40 ------- 2 6.0 2.0 0 7
r 0.775382 0 3 ack 40 ------- 3 7.0 3.0 0 6
+ 0.775382 3 0 exp 1000 ------- 3 3.0 7.0 0 10
- 0.775382 3 0 exp 1000 ------- 3 3.0 7.0 0 10
r 0.824287 0 2 ack 40 ------- 2 6.0 2.0 0 7
+ 0.824287 2 0 exp 1000 ------- 2 2.0 6.0 0 11
- 0.824287 2 0 exp 1000 ------- 2 2.0 6.0 0 11
r 0.833382 3 0 exp 1000 ------- 3 3.0 7.0 0 10
+ 0.833382 0 7 exp 1000 ------- 3 3.0 7.0 0 10
- 0.833382 0 7 exp 1000 ------- 3 3.0 7.0 0 10
r 0.882287 2 0 exp 1000 ------- 2 2.0 6.0 0 11
+ 0.882287 0 6 exp 1000 ------- 2 2.0 6.0 0 11
- 0.882287 0 6 exp 1000 ------- 2 2.0 6.0 0 11
r 0.94792 0 8 tcp 1000 ------- 4 4.0 8.0 1 8
+ 0.94792 8 0 ack 40 ------- 4 8.0 4.0 1 12
- 0.94792 8 0 ack 40 ------- 4 8.0 4.0 1 12
r 0.99592 0 5 tcp 1500 ------- 1 1.0 5.0 1 9
+ 0.99592 5 0 ack 40 ------- 1 5.0 1.0 1 13
- 0.99592 5 0 ack 40 ------- 1 5.0 1.0 1 13
r 1.073382 0 7 exp 1000 ------- 3 3.0 7.0 0 10
+ 1.073382 7 0 ack 40 ------- 3 7.0 3.0 1 14
- 1.073382 7 0 ack 40 ------- 3 7.0 3.0 1 14
r 1.122287 0 6 exp 1000 ------- 2 2.0 6.0 0 11
+ 1.122287 6 0 ack 40 ------- 2 6.0 2.0 1 15
- 1.122287 6 0 ack 40 ------- 2 6.0 2.0 1 15
r 1.14952 8 0 ack 40 ------- 4 8.0 4.0 1 12
+ 1.14952 0 4 ack 40 ------- 4 8.0 4.0 1 12
- 1.14952 0 4 ack 40 ------- 4 8.0 4.0 1 12
r 1.19752 5 0 ack 40 ------- 1 5.0 1.0 1 13
+ 1.19752 0 1 ack 40 ------- 1 5.0 1.0 1 13
- 1.19752 0 1 ack 40 ------- 1 5.0 1.0 1 13
r 1.19984 0 4 ack 40 ------- 4 8.0 4.0 1 12
+ 1.19984 4 0 tcp 1000 ------- 4 4.0 8.0 2 16
- 1.19984 4 0 tcp 1000 ------- 4 4.0 8.0 2 16
+ 1.19984 4 0 tcp 1000 ------- 4 4.0 8.0 3 17
+ 1.19984 4 0 tcp 1000 ------- 4 4.0 8.0 4 18
- 1.20784 4 0 tcp 1000 ------- 4 4.0 8.0 3 17
- 1.21584 4 0 tcp 1000 ------- 4 4.0 8.0 4 18
r 1.24784 0 1 ack 40 ------- 1 5.0 1.0 1 13
+ 1.24784 1 0 tcp 1500 ------- 1 1.0 5.0 2 19
- 1.24784 1 0 tcp 1500 ------- 1 1.0 5.0 2 19
+ 1.24784 1 0 tcp 1500 ------- 1 1.0 5.0 3 20
+ 1.24784 1 0 tcp 1500 ------- 1 1.0 5.0 4 21
r 1.25784 4 0 tcp 1000 ------- 4 4.0 8.0 2 16
+ 1.25784 0 8 tcp 1000 ------- 4 4.0 8.0 2 16
- 1.25784 0 8 tcp 1000 ------- 4 4.0 8.0 2 16
- 1.25984 1 0 tcp 1500 ------- 1 1.0 5.0 3 20
r 1.26584 4 0 tcp 1000 ------- 4 4.0 8.0 3 17
+ 1.26584 0 8 tcp 1000 ------- 4 4.0 8.0 3 17
- 1.27184 1 0 tcp 1500 ------- 1 1.0 5.0 4 21
r 1.27384 4 0 tcp 1000 ------- 4 4.0 8.0 4 18
+ 1.27384 0 8 tcp 1000 ------- 4 4.0 8.0 4 18
r 1.274982 7 0 ack 40 ------- 3 7.0 3.0 1 14
+ 1.274982 0 3 ack 40 ------- 3 7.0 3.0 1 14
- 1.274982 0 3 ack 40 ------- 3 7.0 3.0 1 14
- 1.29784 0 8 tcp 1000 ------- 4 4.0 8.0 3 17
r 1.30984 1 0 tcp 1500 ------- 1 1.0 5.0 2 19
+ 1.30984 0 5 tcp 1500 ------- 1 1.0 5.0 2 19
- 1.30984 0 5 tcp 1500 ------- 1 1.0 5.0 2 19
r 1.32184 1 0 tcp 1500 ------- 1 1.0 5.0 3 20
+ 1.32184 0 5 tcp 1500 ------- 1 1.0 5.0 3 20
r 1.323887 6 0 ack 40 ------- 2 6.0 2.0 1 15
+ 1.323887 0 2 ack 40 ------- 2 6.0 2.0 1 15
- 1.323887 0 2 ack 40 ------- 2 6.0 2.0 1 15
r 1.325302 0 3 ack 40 ------- 3 7.0 3.0 1 14
+ 1.325302 3 0 exp 1000 ------- 3 3.0 7.0 0 22
- 1.325302 3 0 exp 1000 ------- 3 3.0 7.0 0 22
+ 1.325302 3 0 exp 1000 ------- 3 3.0 7.0 0 23
+ 1.325302 3 0 exp 1000 ------- 3 3.0 7.0 0 24
- 1.333302 3 0 exp 1000 ------- 3 3.0 7.0 0 23
r 1.33384 1 0 tcp 1500 ------- 1 1.0 5.0 4 21
+ 1.33384 0 5 tcp 1500 ------- 1 1.0 5.0 4 21
- 1.33784 0 8 tcp 1000 ------- 4 4.0 8.0 4 18
- 1.341302 3 0 exp 1000 ------- 3 3.0 7.0 0 24
- 1.36984 0 5 tcp 1500 ------- 1 1.0 5.0 3 20
r 1.374207 0 2 ack 40 ------- 2 6.0 2.0 1 15
+ 1.374207 2 0 exp 1000 ------- 2 2.0 6.0 0 25
- 1.374207 2 0 exp 1000 ------- 2 2.0 6.0 0 25
+ 1.374207 2 0 exp 1000 ------- 2 2.0 6.0 0 26
+ 1.374207 2 0 exp 1000 ------- 2 2.0 6.0 0 27
- 1.382207 2 0 exp 1000 ------- 2 2.0 6.0 0 26
r 1.383302 3 0 exp 1000 ------- 3 3.0 7.0 0 22
+ 1.383302 0 7 exp 1000 ------- 3 3.0 7.0 0 22
- 1.383302 0 7 exp 1000 ------- 3 3.0 7.0 0 22
- 1.390207 2 0 exp 1000 ------- 2 2.0 6.0 0 27
r 1.391302 3 0 exp 1000 ------- 3 3.0 7.0 0 23
+ 1.391302 0 7 exp 1000 ------- 3 3.0 7.0 0 23
r 1.399302 3 0 exp 1000 ------- 3 3.0 7.0 0 24
+ 1.399302 0 7 exp 1000 ------- 3 3.0 7.0 0 24
- 1.423302 0 7 exp 1000 ------- 3 3.0 7.0 0 23
- 1.42984 0 5 tcp 1500 ------- 1 1.0 5.0 4 21
r 1.432207 2 0 exp 1000 ------- 2 2.0 6.0 0 25
+ 1.432207 0 6 exp 1000 ------- 2 2.0 6.0 0 25
- 1.432207 0 6 exp 1000 ------- 2 2.0 6.0 0 25
r 1.440207 2 0 exp 1000 ------- 2 2.0 6.0 0 26
+ 1.440207 0 6 exp 1000 ------- 2 2.0 6.0 0 26
r 1.448207 2 0 exp 1000 ------- 2 2.0 6.0 0 27
+ 1.448207 0 6 exp 1000 ------- 2 2.0 6.0 0 27
- 1.463302 0 7 exp 1000 ------- 3 3.0 7.0 0 24
- 1.472207 0 6 exp 1000 ------- 2 2.0 6.0 0 26
r 1.49784 0 8 tcp 1000 ------- 4 4.0 8.0 2 16
+ 1.49784 8 0 ack 40 ------- 4 8.0 4.0 2 28
- 1.49784 8 0 ack 40 ------- 4 8.0 4.0 2 28
- 1.512207 0 6 exp 1000 ------- 2 2.0 6.0 0 27
r 1.53784 0 8 tcp 1000 ------- 4 4.0 8.0 3 17
+ 1.53784 8 0 ack 40 ------- 4 8.0 4.0 3 29
- 1.53784 8 0 ack 40 ------- 4 8.0 4.0 3 29
r 1.56984 0 5 tcp 1500 ------- 1 1.0 5.0 2 19
+ 1.56984 5 0 ack 40 ------- 1 5.0 1.0 2 30
- 1.56984 5 0 ack 40 ------- 1 5.0 1.0 2 30
r 1.57784 0 8 tcp 1000 ------- 4 4.0 8.0 4 18
+ 1.57784 8 0 ack 40 ------- 4 8.0 4.0 4 31
- 1.57784 8 0 ack 40 ------- 4 8.0 4.0 4 31
r 1.623302 0 7 exp 1000 ------- 3 3.0 7.0 0 22
+ 1.623302 7 0 ack 40 ------- 3 7.0 3.0 2 32
- 1.623302 7 0 ack 40 ------- 3 7.0 3.0 2 32
r 1.62984 0 5 tcp 1500 ------- 1 1.0 5.0 3 20
+ 1.62984 5 0 ack 40 ------- 1 5.0 1.0 3 33
- 1.62984 5 0 ack 40 ------- 1 5.0 1.0 3 33
r 1.663302 0 7 exp 1000 ------- 3 3.0 7.0 0 23
+ 1.663302 7 0 ack 40 ------- 3 7.0 3.0 3 34
- 1.663302 7 0 ack 40 ------- 3 7.0 3.0 3 34
r 1.672207 0 6 exp 1000 ------- 2 2.0 6.0 0 25
+ 1.672207 6 0 ack 40 ------- 2 6.0 2.0 2 35
- 1.672207 6 0 ack 40 ------- 2 6.0 2.0 2 35
r 1.68984 0 5 tcp 1500 ------- 1 1.0 5.0 4 21
+ 1.68984 5 0 ack 40 ------- 1 5.0 1.0 4 36
- 1.68984 5 0 ack 40 ------- 1 5.0 1.0 4 36
r 1.69944 8 0 ack 40 ------- 4 8.0 4.0 2 28
+ 1.69944 0 4 ack 40 ------- 4 8.0 4.0 2 28
- 1.69944 0 4 ack 40 ------- 4 8.0 4.0 2 28
r 1.703302 0 7 exp 1000 ------- 3 3.0 7.0 0 24
+ 1.703302 7 0 ack 40 ------- 3 7.0 3.0 4 37
- 1.703302 7 0 ack 40 ------- 3 7.0 3.0 4 37
r 1.712207 0 6 exp 1000 ------- 2 2.0 6.0 0 26
+ 1.712207 6 0 ack 40 ------- 2 6.0 2.0 3 38
- 1.712207 6 0 ack 40 ------- 2 6.0 2.0 3 38
r 1.73944 8 0 ack 40 ------- 4 8.0 4.0 3 29
+ 1.73944 0 4 ack 40 ------- 4 8.0 4.0 3 29
- 1.73944 0 4 ack 40 ------- 4 8.0 4.0 3 29
r 1.74976 0 4 ack 40 ------- 4 8.0 4.0 2 28
+ 1.74976 4 0 tcp 1000 ------- 4 4.0 8.0 5 39
- 1.74976 4 0 tcp 1000 ------- 4 4.0 8.0 5 39
r 1.752207 0 6 exp 1000 ------- 2 2.0 6.0 0 27
+ 1.752207 6 0 ack 40 ------- 2 6.0 2.0 4 40
- 1.752207 6 0 ack 40 ------- 2 6.0 2.0 4 40
r 1.77144 5 0 ack 40 ------- 1 5.0 1.0 2 30
+ 1.77144 0 1 ack 40 ------- 1 5.0 1.0 2 30
- 1.77144 0 1 ack 40 ------- 1 5.0 1.0 2 30
r 1.77944 8 0 ack 40 ------- 4 8.0 4.0 4 31
+ 1.77944 0 4 ack 40 ------- 4 8.0 4.0 4 31
- 1.77944 0 4 ack 40 ------- 4 8.0 4.0 4 31
r 1.78976 0 4 ack 40 ------- 4 8.0 4.0 3 29
+ 1.78976 4 0 tcp 1000 ------- 4 4.0 8.0 6 41
- 1.78976 4 0 tcp 1000 ------- 4 4.0 8.0 6 41
r 1.80776 4 0 tcp 1000 ------- 4 4.0 8.0 5 39
+ 1.80776 0 8 tcp 1000 ------- 4 4.0 8.0 5 39
- 1.80776 0 8 tcp 1000 ------- 4 4.0 8.0 5 39
r 1.82176 0 1 ack 40 ------- 1 5.0 1.0 2 30
+ 1.82176 1 0 tcp 1500 ------- 1 1.0 5.0 5 42
- 1.82176 1 0 tcp 1500 ------- 1 1.0 5.0 5 42
r 1.824902 7 0 ack 40 ------- 3 7.0 3.0 2 32
+ 1.824902 0 3 ack 40 ------- 3 7.0 3.0 2 32
- 1.824902 0 3 ack 40 ------- 3 7.0 3.0 2 32
r 1.82976 0 4 ack 40 ------- 4 8.0 4.0 4 31
+ 1.82976 4 0 tcp 1000 ------- 4 4.0 8.0 7 43
- 1.82976 4 0 tcp 1000 ------- 4 4.0 8.0 7 43
r 1.83144 5 0 ack 40 ------- 1 5.0 1.0 3 33
+ 1.83144 0 1 ack 40 ------- 1 5.0 1.0 3 33
- 1.83144 0 1 ack 40 ------- 1 5.0 1.0 3 33
r 1.84776 4 0 tcp 1000 ------- 4 4.0 8.0 6 41
+ 1.84776 0 8 tcp 1000 ------- 4 4.0 8.0 6 41
- 1.84776 0 8 tcp 1000 ------- 4 4.0 8.0 6 41
r 1.864902 7 0 ack 40 ------- 3 7.0 3.0 3 34
+ 1.864902 0 3 ack 40 ------- 3 7.0 3.0 3 34
- 1.864902 0 3 ack 40 ------- 3 7.0 3.0 3 34
r 1.873807 6 0 ack 40 ------- 2 6.0 2.0 2 35
+ 1.873807 0 2 ack 40 ------- 2 6.0 2.0 2 35
- 1.873807 0 2 ack 40 ------- 2 6.0 2.0 2 35
r 1.875222 0 3 ack 40 ------- 3 7.0 3.0 2 32
+ 1.875222 3 0 exp 1000 ------- 3 3.0 7.0 0 44
- 1.875222 3 0 exp 1000 ------- 3 3.0 7.0 0 44
r 1.88176 0 1 ack 40 ------- 1 5.0 1.0 3 33
+ 1.88176 1 0 tcp 1500 ------- 1 1.0 5.0 6 45
- 1.88176 1 0 tcp 1500 ------- 1 1.0 5.0 6 45
r 1.88376 1 0 tcp 1500 ------- 1 1.0 5.0 5 42
+ 1.88376 0 5 tcp 1500 ------- 1 1.0 5.0 5 42
- 1.88376 0 5 tcp 1500 ------- 1 1.0 5.0 5 42
r 1.88776 4 0 tcp 1000 ------- 4 4.0 8.0 7 43
+ 1.88776 0 8 tcp 1000 ------- 4 4.0 8.0 7 43
- 1.88776 0 8 tcp 1000 ------- 4 4.0 8.0 7 43
r 1.89144 5 0 ack 40 ------- 1 5.0 1.0 4 36
+ 1.89144 0 1 ack 40 ------- 1 5.0 1.0 4 36
- 1.89144 0 1 ack 40 ------- 1 5.0 1.0 4 36
r 1.904902 7 0 ack 40 ------- 3 7.0 3.0 4 37
+ 1.904902 0 3 ack 40 ------- 3 7.0 3.0 4 37
- 1.904902 0 3 ack 40 ------- 3 7.0 3.0 4 37
r 1.913807 6 0 ack 40 ------- 2 6.0 2.0 3 38
+ 1.913807 0 2 ack 40 ------- 2 6.0 2.0 3 38
- 1.913807 0 2 ack 40 ------- 2 6.0 2.0 3 38
r 1.915222 0 3 ack 40 ------- 3 7.0 3.0 3 34
+ 1.915222 3 0 exp 1000 ------- 3 3.0 7.0 0 46
- 1.915222 3 0 exp 1000 ------- 3 3.0 7.0 0 46
r 1.924127 0 2 ack 40 ------- 2 6.0 2.0 2 35
+ 1.924127 2 0 exp 1000 ------- 2 2.0 6.0 0 47
- 1.924127 2 0 exp 1000 ------- 2 2.0 6.0 0 47
r 1.933222 3 0 exp 1000 ------- 3 3.0 7.0 0 44
+ 1.933222 0 7 exp 1000 ------- 3 3.0 7.0 0 44
- 1.933222 0 7 exp 1000 ------- 3 3.0 7.0 0 44
r 1.94176 0 1 ack 40 ------- 1 5.0 1.0 4 36
+ 1.94176 1 0 tcp 1500 ------- 1 1.0 5.0 7 48
- 1.94176 1 0 tcp 1500 ------- 1 1.0 5.0 7 48
r 1.94376 1 0 tcp 1500 ------- 1 1.0 5.0 6 45
+ 1.94376 0 5 tcp 1500 ------- 1 1.0 5.0 6 45
- 1.94376 0 5 tcp 1500 ------- 1 1.0 5.0 6 45
r 1.953807 6 0 ack 40 ------- 2 6.0 2.0 4 40
+ 1.953807 0 2 ack 40 ------- 2 6.0 2.0 4 40
- 1.953807 0 2 ack 40 ------- 2 6.0 2.0 4 40
r 1.955222 0 3 ack 40 ------- 3 7.0 3.0 4 37
+ 1.955222 3 0 exp 1000 ------- 3 3.0 7.0 0 49
- 1.955222 3 0 exp 1000 ------- 3 3.0 7.0 0 49
r 1.964127 0 2 ack 40 ------- 2 6.0 2.0 3 38
+ 1.964127 2 0 exp 1000 ------- 2 2.0 6.0 0 50
- 1.964127 2 0 exp 1000 ------- 2 2.0 6.0 0 50
r 1.973222 3 0 exp 1000 ------- 3 3.0 7.0 0 46
+ 1.973222 0 7 exp 1000 ------- 3 3.0 7.0 0 46
- 1.973222 0 7 exp 1000 ------- 3 3.0 7.0 0 46
r 1.982127 2 0 exp 1000 ------- 2 2.0 6.0 0 47
+ 1.982127 0 6 exp 1000 ------- 2 2.0 6.0 0 47
- 1.982127 0 6 exp 1000 ------- 2 2.0 6.0 0 47
r 2.00376 1 0 tcp 1500 ------- 1 1.0 5.0 7 48
+ 2.00376 0 5 tcp 1500 ------- 1 1.0 5.0 7 48
- 2.00376 0 5 tcp 1500 ------- 1 1.0 5.0 7 48
r 2.004127 0 2 ack 40 ------- 2 6.0 2.0 4 40
+ 2.004127 2 0 exp 1000 ------- 2 2.0 6.0 0 51
- 2.004127 2 0 exp 1000 ------- 2 2.0 6.0 0 51
r 2.013222 3 0 exp 1000 ------- 3 3.0 7.0 0 49
+ 2.013222 0 7 exp 1000 ------- 3 3.0 7.0 0 49
- 2.013222 0 7 exp 1000 ------- 3 3.0 7.0 0 49
r 2.022127 2 0 exp 1000 ------- 2 2.0 6.0 0 50
+ 2.022127 0 6 exp 1000 ------- 2 2.0 6.0 0 50
- 2.022127 0 6 exp 1000 ------- 2 2.0 6.0 0 50
r 2.04776 0 8 tcp 1000 ------- 4 4.0 8.0 5 39
+ 2.04776 8 0 ack 40 ------- 4 8.0 4.0 5 52
- 2.04776 8 0 ack 40 ------- 4 8.0 4.0 5 52
r 2.062127 2 0 exp 1000 ------- 2 2.0 6.0 0 51
+ 2.062127 0 6 exp 1000 ------- 2 2.0 6.0 0 51
- 2.062127 0 6 exp 1000 ------- 2 2.0 6.0 0 51
r 2.08776 0 8 tcp 1000 ------- 4 4.0 8.0 6 41
+ 2.08776 8 0 ack 40 ------- 4 8.0 4.0 6 53
- 2.08776 8 0 ack 40 ------- 4 8.0 4.0 6 53
r 2.12776 0 8 tcp 1000 ------- 4 4.0 8.0 7 43
+ 2.12776 8 0 ack 40 ------- 4 8.0 4.0 7 54
- 2.12776 8 0 ack 40 ------- 4 8.0 4.0 7 54
r 2.14376 0 5 tcp 1500 ------- 1 1.0 5.0 5 42
+ 2.14376 5 0 ack 40 ------- 1 5.0 1.0 5 55
- 2.14376 5 0 ack 40 ------- 1 5.0 1.0 5 55
r 2.173222 0 7 exp 1000 ------- 3 3.0 7.0 0 44
+ 2.173222 7 0 ack 40 ------- 3 7.0 3.0 5 56
- 2.173222 7 0 ack 40 ------- 3 7.0 3.0 5 56
r 2.20376 0 5 tcp 1500 ------- 1 1.0 5.0 6 45
+ 2.20376 5 0 ack 40 ------- 1 5.0 1.0 6 57
- 2.20376 5 0 ack 40 ------- 1 5.0 1.0 6 57
r 2.213222 0 7 exp 1000 ------- 3 3.0 7.0 0 46
+ 2.213222 7 0 ack 40 ------- 3 7.0 3.0 6 58
- 2.213222 7 0 ack 40 ------- 3 7.0 3.0 6 58
r 2.222127 0 6 exp 1000 ------- 2 2.0 6.0 0 47
+ 2.222127 6 0 ack 40 ------- 2 6.0 2.0 5 59
- 2.222127 6 0 ack 40 ------- 2 6.0 2.0 5 59
r 2.24936 8 0 ack 40 ------- 4 8.0 4.0 5 52
+ 2.24936 0 4 ack 40 ------- 4 8.0 4.0 5 52
- 2.24936 0 4 ack 40 ------- 4 8.0 4.0 5 52
r 2.253222 0 7 exp 1000 ------- 3 3.0 7.0 0 49
+ 2.253222 7 0 ack 40 ------- 3 7.0 3.0 7 60
- 2.253222 7 0 ack 40 ------- 3 7.0 3.0 7 60
r 2.262127 0 6 exp 1000 ------- 2 2.0 6.0 0 50
+ 2.262127 6 0 ack 40 ------- 2 6.0 2.0 6 61
- 2.262127 6 0 ack 40 ------- 2 6.0 2.0 6 61
r 2.26376 0 5 tcp 1500 ------- 1 1.0 5.0 7 48
+ 2.26376 5 0 ack 40 ------- 1 5.0 1.0 7 62
- 2.26376 5 0 ack 40 ------- 1 5.0 1.0 7 62
r 2.28936 8 0 ack 40 ------- 4 8.0 4.0 6 53
+ 2.28936 0 4 ack 40 ------- 4 8.0 4.0 6 53
- 2.28936 0 4 ack 40 ------- 4 8.0 4.0 6 53
r 2.29968 0 4 ack 40 ------- 4 8.0 4.0 5 52
+ 2.29968 4 0 tcp 1000 ------- 4 4.0 8.0 8 63
- 2.29968 4 0 tcp 1000 ------- 4 4.0 8.0 8 63
+ 2.29968 4 0 tcp 1000 ------- 4 4.0 8.0 9 64
r 2.302127 0 6 exp 1000 ------- 2 2.0 6.0 0 51
+ 2.302127 6 0 ack 40 ------- 2 6.0 2.0 7 65
- 2.302127 6 0 ack 40 ------- 2 6.0 2.0 7 65
- 2.30768 4 0 tcp 1000 ------- 4 4.0 8.0 9 64
r 2.32936 8 0 ack 40 ------- 4 8.0 4.0 7 54
+ 2.32936 0 4 ack 40 ------- 4 8.0 4.0 7 54
- 2.32936 0 4 ack 40 ------- 4 8.0 4.0 7 54
r 2.33968 0 4 ack 40 ------- 4 8.0 4.0 6 53
+ 2.33968 4 0 tcp 1000 ------- 4 4.0 8.0 10 66
- 2.33968 4 0 tcp 1000 ------- 4 4.0 8.0 10 66
+ 2.33968 4 0 tcp 1000 ------- 4 4.0 8.0 11 67
r 2.34536 5 0 ack 40 ------- 1 5.0 1.0 5 55
+ 2.34536 0 1 ack 40 ------- 1 5.0 1.0 5 55
- 2.34536 0 1 ack 40 ------- 1 5.0 1.0 5 55
- 2.34768 4 0 tcp 1000 ------- 4 4.0 8.0 11 67
r 2.35768 4 0 tcp 1000 ------- 4 4.0 8.0 8 63
+ 2.35768 0 8 tcp 1000 ------- 4 4.0 8.0 8 63
- 2.35768 0 8 tcp 1000 ------- 4 4.0 8.0 8 63
r 2.36568 4 0 tcp 1000 ------- 4 4.0 8.0 9 64
+ 2.36568 0 8 tcp 1000 ------- 4 4.0 8.0 9 64
r 2.374822 7 0 ack 40 ------- 3 7.0 3.0 5 56
+ 2.374822 0 3 ack 40 ------- 3 7.0 3.0 5 56
- 2.374822 0 3 ack 40 ------- 3 7.0 3.0 5 56
r 2.37968 0 4 ack 40 ------- 4 8.0 4.0 7 54
+ 2.37968 4 0 tcp 1000 ------- 4 4.0 8.0 12 68
- 2.37968 4 0 tcp 1000 ------- 4 4.0 8.0 12 68
+ 2.37968 4 0 tcp 1000 ------- 4 4.0 8.0 13 69
- 2.38768 4 0 tcp 1000 ------- 4 4.0 8.0 13 69
r 2.39568 0 1 ack 40 ------- 1 5.0 1.0 5 55
+ 2.39568 1 0 tcp 1500 ------- 1 1.0 5.0 8 70
- 2.39568 1 0 tcp 1500 ------- 1 1.0 5.0 8 70
+ 2.39568 1 0 tcp 1500 ------- 1 1.0 5.0 9 71
r 2.39768 4 0 tcp 1000 ------- 4 4.0 8.0 10 66
+ 2.39768 0 8 tcp 1000 ------- 4 4.0 8.0 10 66
- 2.39768 0 8 tcp 1000 ------- 4 4.0 8.0 9 64
r 2.40536 5 0 ack 40 ------- 1 5.0 1.0 6 57
+ 2.40536 0 1 ack 40 ------- 1 5.0 1.0 6 57
- 2.40536 0 1 ack 40 ------- 1 5.0 1.0 6 57
r 2.40568 4 0 tcp 1000 ------- 4 4.0 8.0 11 67
+ 2.40568 0 8 tcp 1000 ------- 4 4.0 8.0 11 67
- 2.40768 1 0 tcp 1500 ------- 1 1.0 5.0 9 71
r 2.414822 7 0 ack 40 ------- 3 7.0 3.0 6 58
+ 2.414822 0 3 ack 40 ------- 3 7.0 3.0 6 58
- 2.414822 0 3 ack 40 ------- 3 7.0 3.0 6 58
r 2.423727 6 0 ack 40 ------- 2 6.0 2.0 5 59
+ 2.423727 0 2 ack 40 ------- 2 6.0 2.0 5 59
- 2.423727 0 2 ack 40 ------- 2 6.0 2.0 5 59
r 2.425142 0 3 ack 40 ------- 3 7.0 3.0 5 56
+ 2.425142 3 0 exp 1000 ------- 3 3.0 7.0 0 72
- 2.425142 3 0 exp 1000 ------- 3 3.0 7.0 0 72
+ 2.425142 3 0 exp 1000 ------- 3 3.0 7.0 0 73
- 2.433142 3 0 exp 1000 ------- 3 3.0 7.0 0 73
r 2.43768 4 0 tcp 1000 ------- 4 4.0 8.0 12 68
+ 2.43768 0 8 tcp 1000 ------- 4 4.0 8.0 12 68
- 2.43768 0 8 tcp 1000 ------- 4 4.0 8.0 10 66
r 2.44568 4 0 tcp 1000 ------- 4 4.0 8.0 13 69
+ 2.44568 0 8 tcp 1000 ------- 4 4.0 8.0 13 69
r 2.454822 7 0 ack 40 ------- 3 7.0 3.0 7 60
+ 2.454822 0 3 ack 40 ------- 3 7.0 3.0 7 60
- 2.454822 0 3 ack 40 ------- 3 7.0 3.0 7 60
r 2.45568 0 1 ack 40 ------- 1 5.0 1.0 6 57
+ 2.45568 1 0 tcp 1500 ------- 1 1.0 5.0 10 74
- 2.45568 1 0 tcp 1500 ------- 1 1.0 5.0 10 74
+ 2.45568 1 0 tcp 1500 ------- 1 1.0 5.0 11 75
r 2.45768 1 0 tcp 1500 ------- 1 1.0 5.0 8 70
+ 2.45768 0 5 tcp 1500 ------- 1 1.0 5.0 8 70
- 2.45768 0 5 tcp 1500 ------- 1 1.0 5.0 8 70
r 2.463727 6 0 ack 40 ------- 2 6.0 2.0 6 61
+ 2.463727 0 2 ack 40 ------- 2 6.0 2.0 6 61
- 2.463727 0 2 ack 40 ------- 2 6.0 2.0 6 61
r 2.465142 0 3 ack 40 ------- 3 7.0 3.0 6 58
+ 2.465142 3 0 exp 1000 ------- 3 3.0 7.0 0 76
- 2.465142 3 0 exp 1000 ------- 3 3.0 7.0 0 76
+ 2.465142 3 0 exp 1000 ------- 3 3.0 7.0 0 77
r 2.46536 5 0 ack 40 ------- 1 5.0 1.0 7 62
+ 2.46536 0 1 ack 40 ------- 1 5.0 1.0 7 62
- 2.46536 0 1 ack 40 ------- 1 5.0 1.0 7 62
- 2.46768 1 0 tcp 1500 ------- 1 1.0 5.0 11 75
r 2.46968 1 0 tcp 1500 ------- 1 1.0 5.0 9 71
+ 2.46968 0 5 tcp 1500 ------- 1 1.0 5.0 9 71
- 2.473142 3 0 exp 1000 ------- 3 3.0 7.0 0 77
r 2.474047 0 2 ack 40 ------- 2 6.0 2.0 5 59
+ 2.474047 2 0 exp 1000 ------- 2 2.0 6.0 0 78
- 2.474047 2 0 exp 1000 ------- 2 2.0 6.0 0 78
+ 2.474047 2 0 exp 1000 ------- 2 2.0 6.0 0 79
- 2.47768 0 8 tcp 1000 ------- 4 4.0 8.0 11 67
- 2.482047 2 0 exp 1000 ------- 2 2.0 6.0 0 79
r 2.483142 3 0 exp 1000 ------- 3 3.0 7.0 0 72
+ 2.483142 0 7 exp 1000 ------- 3 3.0 7.0 0 72
- 2.483142 0 7 exp 1000 ------- 3 3.0 7.0 0 72
r 2.491142 3 0 exp 1000 ------- 3 3.0 7.0 0 73
+ 2.491142 0 7 exp 1000 ------- 3 3.0 7.0 0 73
r 2.503727 6 0 ack 40 ------- 2 6.0 2.0 7 65
+ 2.503727 0 2 ack 40 ------- 2 6.0 2.0 7 65
- 2.503727 0 2 ack 40 ------- 2 6.0 2.0 7 65
r 2.505142 0 3 ack 40 ------- 3 7.0 3.0 7 60
+ 2.505142 3 0 exp 1000 ------- 3 3.0 7.0 0 80
- 2.505142 3 0 exp 1000 ------- 3 3.0 7.0 0 80
+ 2.505142 3 0 exp 1000 ------- 3 3.0 7.0 0 81
- 2.513142 3 0 exp 1000 ------- 3 3.0 7.0 0 81
r 2.514047 0 2 ack 40 ------- 2 6.0 2.0 6 61
+ 2.514047 2 0 exp 1000 ------- 2 2.0 6.0 0 82
- 2.514047 2 0 exp 1000 ------- 2 2.0 6.0 0 82
+ 2.514047 2 0 exp 1000 ------- 2 2.0 6.0 0 83
r 2.51568 0 1 ack 40 ------- 1 5.0 1.0 7 62
+ 2.51568 1 0 tcp 1500 ------- 1 1.0 5.0 12 84
- 2.51568 1 0 tcp 1500 ------- 1 1.0 5.0 12 84
+ 2.51568 1 0 tcp 1500 ------- 1 1.0 5.0 13 85
r 2.51768 1 0 tcp 1500 ------- 1 1.0 5.0 10 74
+ 2.51768 0 5 tcp 1500 ------- 1 1.0 5.0 10 74
- 2.51768 0 5 tcp 1500 ------- 1 1.0 5.0 9 71
- 2.51768 0 8 tcp 1000 ------- 4 4.0 8.0 12 68
- 2.522047 2 0 exp 1000 ------- 2 2.0 6.0 0 83
r 2.523142 3 0 exp 1000 ------- 3 3.0 7.0 0 76
+ 2.523142 0 7 exp 1000 ------- 3 3.0 7.0 0 76
- 2.523142 0 7 exp 1000 ------- 3 3.0 7.0 0 73
- 2.52768 1 0 tcp 1500 ------- 1 1.0 5.0 13 85
r 2.52968 1 0 tcp 1500 ------- 1 1.0 5.0 11 75
+ 2.52968 0 5 tcp 1500 ------- 1 1.0 5.0 11 75
r 2.531142 3 0 exp 1000 ------- 3 3.0 7.0 0 77
+ 2.531142 0 7 exp 1000 ------- 3 3.0 7.0 0 77
r 2.532047 2 0 exp 1000 ------- 2 2.0 6.0 0 78
+ 2.532047 0 6 exp 1000 ------- 2 2.0 6.0 0 78
- 2.532047 0 6 exp 1000 ------- 2 2.0 6.0 0 78
r 2.540047 2 0 exp 1000 ------- 2 2.0 6.0 0 79
+ 2.540047 0 6 exp 1000 ------- 2 2.0 6.0 0 79
r 2.554047 0 2 ack 40 ------- 2 6.0 2.0 7 65
+ 2.554047 2 0 exp 1000 ------- 2 2.0 6.0 0 86
- 2.554047 2 0 exp 1000 ------- 2 2.0 6.0 0 86
+ 2.554047 2 0 exp 1000 ------- 2 2.0 6.0 0 87
- 2.55768 0 8 tcp 1000 ------- 4 4.0 8.0 13 69
- 2.562047 2 0 exp 1000 ------- 2 2.0 6.0 0 87
r 2.563142 3 0 exp 1000 ------- 3 3.0 7.0 0 80
+ 2.563142 0 7 exp 1000 ------- 3 3.0 7.0 0 80
- 2.563142 0 7 exp 1000 ------- 3 3.0 7.0 0 76
r 2.571142 3 0 exp 1000 ------- 3 3.0 7.0 0 81
+ 2.571142 0 7 exp 1000 ------- 3 3.0 7.0 0 81
r 2.572047 2 0 exp 1000 ------- 2 2.0 6.0 0 82
+ 2.572047 0 6 exp 1000 ------- 2 2.0 6.0 0 82
- 2.572047 0 6 exp 1000 ------- 2 2.0 6.0 0 79
r 2.57768 1 0 tcp 1500 ------- 1 1.0 5.0 12 84
+ 2.57768 0 5 tcp 1500 ------- 1 1.0 5.0 12 84
- 2.57768 0 5 tcp 1500 ------- 1 1.0 5.0 10 74
r 2.580047 2 0 exp 1000 ------- 2 2.0 6.0 0 83
+ 2.580047 0 6 exp 1000 ------- 2 2.0 6.0 0 83
r 2.58968 1 0 tcp 1500 ------- 1 1.0 5.0 13 85
+ 2.58968 0 5 tcp 1500 ------- 1 1.0 5.0 13 85
r 2.59768 0 8 tcp 1000 ------- 4 4.0 8.0 8 63
+ 2.59768 8 0 ack 40 ------- 4 8.0 4.0 8 88
- 2.59768 8 0 ack 40 ------- 4 8.0 4.0 8 88
- 2.603142 0 7 exp 1000 ------- 3 3.0 7.0 0 77
r 2.612047 2 0 exp 1000 ------- 2 2.0 6.0 0 86
+ 2.612047 0 6 exp 1000 ------- 2 2.0 6.0 0 86
- 2.612047 0 6 exp 1000 ------- 2 2.0 6.0 0 82
r 2.620047 2 0 exp 1000 ------- 2 2.0 6.0 0 87
+ 2.620047 0 6 exp 1000 ------- 2 2.0 6.0 0 87
r 2.63768 0 8 tcp 1000 ------- 4 4.0 8.0 9 64
+ 2.63768 8 0 ack 40 ------- 4 8.0 4.0 9 89
- 2.63768 8 0 ack 40 ------- 4 8.0 4.0 9 89
- 2.63768 0 5 tcp 1500 ------- 1 1.0 5.0 11 75
- 2.643142 0 7 exp 1000 ------- 3 3.0 7.0 0 80
- 2.652047 0 6 exp 1000 ------- 2 2.0 6.0 0 83
r 2.67768 0 8 tcp 1000 ------- 4 4.0 8.0 10 66
+ 2.67768 8 0 ack 40 ------- 4 8.0 4.0 10 90
- 2.67768 8 0 ack 40 ------- 4 8.0 4.0 10 90
- 2.683142 0 7 exp 1000 ------- 3 3.0 7.0 0 81
- 2.692047 0 6 exp 1000 ------- 2 2.0 6.0 0 86
- 2.69768 0 5 tcp 1500 ------- 1 1.0 5.0 12 84
r 2.71768 0 5 tcp 1500 ------- 1 1.0 5.0 8 70
+ 2.71768 5 0 ack 40 ------- 1 5.0 1.0 8 91
- 2.71768 5 0 ack 40 ------- 1 5.0 1.0 8 91
r 2.71768 0 8 tcp 1000 ------- 4 4.0 8.0 11 67
+ 2.71768 8 0 ack 40 ------- 4 8.0 4.0 11 92
- 2.71768 8 0 ack 40 ------- 4 8.0 4.0 11 92
r 2.723142 0 7 exp 1000 ------- 3 3.0 7.0 0 72
+ 2.723142 7 0 ack 40 ------- 3 7.0 3.0 8 93
- 2.723142 7 0 ack 40 ------- 3 7.0 3.0 8 93
- 2.732047 0 6 exp 1000 ------- 2 2.0 6.0 0 87
r 2.75768 0 8 tcp 1000 ------- 4 4.0 8.0 12 68
+ 2.75768 8 0 ack 40 ------- 4 8.0 4.0 12 94
- 2.75768 8 0 ack 40 ------- 4 8.0 4.0 12 94
- 2.75768 0 5 tcp 1500 ------- 1 1.0 5.0 13 85
r 2.763142 0 7 exp 1000 ------- 3 3.0 7.0 0 73
+ 2.763142 7 0 ack 40 ------- 3 7.0 3.0 9 95
- 2.763142 7 0 ack 40 ------- 3 7.0 3.0 9 95
r 2.772047 0 6 exp 1000 ------- 2 2.0 6.0 0 78
+ 2.772047 6 0 ack 40 ------- 2 6.0 2.0 8 96
- 2.772047 6 0 ack 40 ------- 2 6.0 2.0 8 96
r 2.77768 0 5 tcp 1500 ------- 1 1.0 5.0 9 71
+ 2.77768 5 0 ack 40 ------- 1 5.0 1.0 9 97
- 2.77768 5 0 ack 40 ------- 1 5.0 1.0 9 97
r 2.79768 0 8 tcp 1000 ------- 4 4.0 8.0 13 69
+ 2.79768 8 0 ack 40 ------- 4 8.0 4.0 13 98
- 2.79768 8 0 ack 40 ------- 4 8.0 4.0 13 98
r 2.79928 8 0 ack 40 ------- 4 8.0 4.0 8 88
+ 2.79928 0 4 ack 40 ------- 4 8.0 4.0 8 88
- 2.79928 0 4 ack 40 ------- 4 8.0 4.0 8 88
r 2.803142 0 7 exp 1000 ------- 3 3.0 7.0 0 76
+ 2.803142 7 0 ack 40 ------- 3 7.0 3.0 10 99
- 2.803142 7 0 ack 40 ------- 3 7.0 3.0 10 99
r 2.812047 0 6 exp 1000 ------- 2 2.0 6.0 0 79
+ 2.812047 6 0 ack 40 ------- 2 6.0 2.0 9 100
- 2.812047 6 0 ack 40 ------- 2 6.0 2.0 9 100
r 2.83768 0 5 tcp 1500 ------- 1 1.0 5.0 10 74
+ 2.83768 5 0 ack 40 ------- 1 5.0 1.0 10 101
- 2.83768 5 0 ack 40 ------- 1 5.0 1.0 10 101
r 2.83928 8 0 ack 40 ------- 4 8.0 4.0 9 89
+ 2.83928 0 4 ack 40 ------- 4 8.0 4.0 9 89
- 2.83928 0 4 ack 40 ------- 4 8.0 4.0 9 89
r 2.843142 0 7 exp 1000 ------- 3 3.0 7.0 0 77
+ 2.843142 7 0 ack 40 ------- 3 7.0 3.0 11 102
- 2.843142 7 0 ack 40 ------- 3 7.0 3.0 11 102
r 2.8496 0 4 ack 40 ------- 4 8.0 4.0 8 88
+ 2.8496 4 0 tcp 1000 ------- 4 4.0 8.0 14 103
- 2.8496 4 0 tcp 1000 ------- 4 4.0 8.0 14 103
r 2.852047 0 6 exp 1000 ------- 2 2.0 6.0 0 82
+ 2.852047 6 0 ack 40 ------- 2 6.0 2.0 10 104
- 2.852047 6 0 ack 40 ------- 2 6.0 2.0 10 104
r 2.87928 8 0 ack 40 ------- 4 8.0 4.0 10 90
+ 2.87928 0 4 ack 40 ------- 4 8.0 4.0 10 90
- 2.87928 0 4 ack 40 ------- 4 8.0 4.0 10 90
r 2.883142 0 7 exp 1000 ------- 3 3.0 7.0 0 80
+ 2.883142 7 0 ack 40 ------- 3 7.0 3.0 12 105
- 2.883142 7 0 ack 40 ------- 3 7.0 3.0 12 105
r 2.8896 0 4 ack 40 ------- 4 8.0 4.0 9 89
+ 2.8896 4 0 tcp 1000 ------- 4 4.0 8.0 15 106
- 2.8896 4 0 tcp 1000 ------- 4 4.0 8.0 15 106
r 2.892047 0 6 exp 1000 ------- 2 2.0 6.0 0 83
+ 2.892047 6 0 ack 40 ------- 2 6.0 2.0 11 107
- 2.892047 6 0 ack 40 ------- 2 6.0 2.0 11 107
r 2.89768 0 5 tcp 1500 ------- 1 1.0 5.0 11 75
+ 2.89768 5 0 ack 40 ------- 1 5.0 1.0 11 108
- 2.89768 5 0 ack 40 ------- 1 5.0 1.0 11 108
r 2.9076 4 0 tcp 1000 ------- 4 4.0 8.0 14 103
+ 2.9076 0 8 tcp 1000 ------- 4 4.0 8.0 14 103
- 2.9076 0 8 tcp 1000 ------- 4 4.0 8.0 14 103
r 2.91928 5 0 ack 40 ------- 1 5.0 1.0 8 91
+ 2.91928 0 1 ack 40 ------- 1 5.0 1.0 8 91
- 2.91928 0 1 ack 40 ------- 1 5.0 1.0 8 91
r 2.91928 8 0 ack 40 ------- 4 8.0 4.0 11 92
+ 2.91928 0 4 ack 40 ------- 4 8.0 4.0 11 92
- 2.91928 0 4 ack 40 ------- 4 8.0 4.0 11 92
r 2.923142 0 7 exp 1000 ------- 3 3.0 7.0 0 81
+ 2.923142 7 0 ack 40 ------- 3 7.0 3.0 13 109
- 2.923142 7 0 ack 40 ------- 3 7.0 3.0 13 109
r 2.924742 7 0 ack 40 ------- 3 7.0 3.0 8 93
+ 2.924742 0 3 ack 40 ------- 3 7.0 3.0 8 93
- 2.924742 0 3 ack 40 ------- 3 7.0 3.0 8 93
r 2.9296 0 4 ack 40 ------- 4 8.0 4.0 10 90
+ 2.9296 4 0 tcp 1000 ------- 4 4.0 8.0 16 110
- 2.9296 4 0 tcp 1000 ------- 4 4.0 8.0 16 110
r 2.932047 0 6 exp 1000 ------- 2 2.0 6.0 0 86
+ 2.932047 6 0 ack 40 ------- 2 6.0 2.0 12 111
- 2.932047 6 0 ack 40 ------- 2 6.0 2.0 12 111
r 2.9476 4 0 tcp 1000 ------- 4 4.0 8.0 15 106
+ 2.9476 0 8 tcp 1000 ------- 4 4.0 8.0 15 106
- 2.9476 0 8 tcp 1000 ------- 4 4.0 8.0 15 106
r 2.95768 0 5 tcp 1500 ------- 1 1.0 5.0 12 84
+ 2.95768 5 0 ack 40 ------- 1 5.0 1.0 12 112
- 2.95768 5 0 ack 40 ------- 1 5.0 1.0 12 112
r 2.95928 8 0 ack 40 ------- 4 8.0 4.0 12 94
+ 2.95928 0 4 ack 40 ------- 4 8.0 4.0 12 94
- 2.95928 0 4 ack 40 ------- 4 8.0 4.0 12 94
r 2.964742 7 0 ack 40 ------- 3 7.0 3.0 9 95
+ 2.964742 0 3 ack 40 ------- 3 7.0 3.0 9 95
- 2.964742 0 3 ack 40 ------- 3 7.0 3.0 9 95
r 2.9696 0 1 ack 40 ------- 1 5.0 1.0 8 91
+ 2.9696 1 0 tcp 1500 ------- 1 1.0 5.0 14 113
- 2.9696 1 0 tcp 1500 ------- 1 1.0 5.0 14 113
r 2.9696 0 4 ack 40 ------- 4 8.0 4.0 11 92
+ 2.9696 4 0 tcp 1000 ------- 4 4.0 8.0 17 114
- 2.9696 4 0 tcp 1000 ------- 4 4.0 8.0 17 114
r 2.972047 0 6 exp 1000 ------- 2 2.0 6.0 0 87
+ 2.972047 6 0 ack 40 ------- 2 6.0 2.0 13 115
- 2.972047 6 0 ack 40 ------- 2 6.0 2.0 13 115
r 2.973647 6 0 ack 40 ------- 2 6.0 2.0 8 96
+ 2.973647 0 2 ack 40 ------- 2 6.0 2.0 8 96
- 2.973647 0 2 ack 40 ------- 2 6.0 2.0 8 96
r 2.975062 0 3 ack 40 ------- 3 7.0 3.0 8 93
+ 2.975062 3 0 exp 1000 ------- 3 3.0 7.0 0 116
- 2.975062 3 0 exp 1000 ------- 3 3.0 7.0 0 116
r 2.97928 5 0 ack 40 ------- 1 5.0 1.0 9 97
+ 2.97928 0 1 ack 40 ------- 1 5.0 1.0 9 97
- 2.97928 0 1 ack 40 ------- 1 5.0 1.0 9 97
r 2.9876 4 0 tcp 1000 ------- 4 4.0 8.0 16 110
+ 2.9876 0 8 tcp 1000 ------- 4 4.0 8.0 16 110
- 2.9876 0 8 tcp 1000 ------- 4 4.0 8.0 16 110
r 2.99928 8 0 ack 40 ------- 4 8.0 4.0 13 98
+ 2.99928 0 4 ack 40 ------- 4 8.0 4.0 13 98
- 2.99928 0 4 ack 40 ------- 4 8.0 4.0 13 98
r 3.004742 7 0 ack 40 ------- 3 7.0 3.0 10 99
+ 3.004742 0 3 ack 40 ------- 3 7.0 3.0 10 99
- 3.004742 0 3 ack 40 ------- 3 7.0 3.0 10 99
r 3.0096 0 4 ack 40 ------- 4 8.0 4.0 12 94
+ 3.0096 4 0 tcp 1000 ------- 4 4.0 8.0 18 117
- 3.0096 4 0 tcp 1000 ------- 4 4.0 8.0 18 117
r 3.013647 6 0 ack 40 ------- 2 6.0 2.0 9 100
+ 3.013647 0 2 ack 40 ------- 2 6.0 2.0 9 100
- 3.013647 0 2 ack 40 ------- 2 6.0 2.0 9 100
r 3.015062 0 3 ack 40 ------- 3 7.0 3.0 9 95
+ 3.015062 3 0 exp 1000 ------- 3 3.0 7.0 0 118
- 3.015062 3 0 exp 1000 ------- 3 3.0 7.0 0 118
r 3.01768 0 5 tcp 1500 ------- 1 1.0 5.0 13 85
+ 3.01768 5 0 ack 40 ------- 1 5.0 1.0 13 119
- 3.01768 5 0 ack 40 ------- 1 5.0 1.0 13 119
r 3.023967 0 2 ack 40 ------- 2 6.0 2.0 8 96
+ 3.023967 2 0 exp 1000 ------- 2 2.0 6.0 0 120
- 3.023967 2 0 exp 1000 ------- 2 2.0 6.0 0 120
r 3.0276 4 0 tcp 1000 ------- 4 4.0 8.0 17 114
+ 3.0276 0 8 tcp 1000 ------- 4 4.0 8.0 17 114
- 3.0276 0 8 tcp 1000 ------- 4 4.0 8.0 17 114
r 3.0296 0 1 ack 40 ------- 1 5.0 1.0 9 97
+ 3.0296 1 0 tcp 1500 ------- 1 1.0 5.0 15 121
- 3.0296 1 0 tcp 1500 ------- 1 1.0 5.0 15 121