+ 0.1 1 3 tcp 1000 ------- 2 1.0 6.0 0 0
- 0.1 1 3 tcp 1000 ------- 2 1.0 6.0 0 0
+ 0.1 8 3 tcp 1000 ------- 4 8.0 9.0 0 1
- 0.1 8 3 tcp 1000 ------- 4 8.0 9.0 0 1
r 0.158 1 3 tcp 1000 ------- 2 1.0 6.0 0 0
+ 0.158 3 4 tcp 1000 ------- 2 1.0 6.0 0 0
- 0.158 3 4 tcp 1000 ------- 2 1.0 6.0 0 0
r 0.158 8 3 tcp 1000 ------- 4 8.0 9.0 0 1
+ 0.158 3 4 tcp 1000 ------- 4 8.0 9.0 0 1
- 0.15808 3 4 tcp 1000 ------- 4 8.0 9.0 0 1
r 0.20808 3 4 tcp 1000 ------- 2 1.0 6.0 0 0
+ 0.20808 4 6 tcp 1000 ------- 2 1.0 6.0 0 0
- 0.20808 4 6 tcp 1000 ------- 2 1.0 6.0 0 0
r 0.20816 3 4 tcp 1000 ------- 4 8.0 9.0 0 1
+ 0.20816 4 9 tcp 1000 ------- 4 8.0 9.0 0 1
- 0.20816 4 9 tcp 1000 ------- 4 8.0 9.0 0 1
+ 0.225462 0 3 exp 1500 ------- 1 0.0 5.0 0 2
- 0.225462 0 3 exp 1500 ------- 1 0.0 5.0 0 2
+ 0.274367 2 3 exp 1000 ------- 3 2.0 7.0 0 3
- 0.274367 2 3 exp 1000 ------- 3 2.0 7.0 0 3
r 0.287462 0 3 exp 1500 ------- 1 0.0 5.0 0 2
+ 0.287462 3 4 exp 1500 ------- 1 0.0 5.0 0 2
- 0.287462 3 4 exp 1500 ------- 1 0.0 5.0 0 2
r 0.332367 2 3 exp 1000 ------- 3 2.0 7.0 0 3
+ 0.332367 3 4 exp 1000 ------- 3 2.0 7.0 0 3
- 0.332367 3 4 exp 1000 ------- 3 2.0 7.0 0 3
r 0.337582 3 4 exp 1500 ------- 1 0.0 5.0 0 2
+ 0.337582 4 5 exp 1500 ------- 1 0.0 5.0 0 2
- 0.337582 4 5 exp 1500 ------- 1 0.0 5.0 0 2
r 0.382447 3 4 exp 1000 ------- 3 2.0 7.0 0 3
+ 0.382447 4 7 exp 1000 ------- 3 2.0 7.0 0 3
- 0.382447 4 7 exp 1000 ------- 3 2.0 7.0 0 3
r 0.44808 4 6 tcp 1000 ------- 2 1.0 6.0 0 0
+ 0.44808 6 4 ack 40 ------- 2 6.0 1.0 0 4
- 0.44808 6 4 ack 40 ------- 2 6.0 1.0 0 4
r 0.44816 4 9 tcp 1000 ------- 4 8.0 9.0 0 1
+ 0.44816 9 4 ack 40 ------- 4 9.0 8.0 0 5
- 0.44816 9 4 ack 40 ------- 4 9.0 8.0 0 5
r 0.597582 4 5 exp 1500 ------- 1 0.0 5.0 0 2
+ 0.597582 5 4 ack 40 ------- 1 5.0 0.0 0 6
- 0.597582 5 4 ack 40 ------- 1 5.0 0.0 0 6
r 0.622447 4 7 exp 1000 ------- 3 2.0 7.0 0 3
+ 0.622447 7 4 ack 40 ------- 3 7.0 2.0 0 7
- 0.622447 7 4 ack 40 ------- 3 7.0 2.0 0 7
r 0.64968 6 4 ack 40 ------- 2 6.0 1.0 0 4
+ 0.64968 4 3 ack 40 ------- 2 6.0 1.0 0 4
- 0.64968 4 3 ack 40 ------- 2 6.0 1.0 0 4
r 0.64976 9 4 ack 40 ------- 4 9.0 8.0 0 5
+ 0.64976 4 3 ack 40 ------- 4 9.0 8.0 0 5
- 0.64976 4 3 ack 40 ------- 4 9.0 8.0 0 5
r 0.699683 4 3 ack 40 ------- 2 6.0 1.0 0 4
+ 0.699683 3 1 ack 40 ------- 2 6.0 1.0 0 4
- 0.699683 3 1 ack 40 ------- 2 6.0 1.0 0 4
r 0.699763 4 3 ack 40 ------- 4 9.0 8.0 0 5
+ 0.699763 3 8 ack 40 ------- 4 9.0 8.0 0 5
- 0.699763 3 8 ack 40 ------- 4 9.0 8.0 0 5
r 0.750003 3 1 ack 40 ------- 2 6.0 1.0 0 4
+ 0.750003 1 3 tcp 1000 ------- 2 1.0 6.0 1 8
- 0.750003 1 3 tcp 1000 ------- 2 1.0 6.0 1 8
r 0.750083 3 8 ack 40 ------- 4 9.0 8.0 0 5
+ 0.750083 8 3 tcp 1000 ------- 4 8.0 9.0 1 9
- 0.750083 8 3 tcp 1000 ------- 4 8.0 9.0 1 9
r 0.799182 5 4 ack 40 ------- 1 5.0 0.0 0 6
+ 0.799182 4 3 ack 40 ------- 1 5.0 0.0 0 6
- 0.799182 4 3 ack 40 ------- 1 5.0 0.0 0 6
r 0.808003 1 3 tcp 1000 ------- 2 1.0 6.0 1 8
+ 0.808003 3 4 tcp 1000 ------- 2 1.0 6.0 1 8
- 0.808003 3 4 tcp 1000 ------- 2 1.0 6.0 1 8
r 0.808083 8 3 tcp 1000 ------- 4 8.0 9.0 1 9
+ 0.808083 3 4 tcp 1000 ------- 4 8.0 9.0 1 9
- 0.808083 3 4 tcp 1000 ------- 4 8.0 9.0 1 9
r 0.824047 7 4 ack 40 ------- 3 7.0 2.0 0 7
+ 0.824047 4 3 ack 40 ------- 3 7.0 2.0 0 7
- 0.824047 4 3 ack 40 ------- 3 7.0 2.0 0 7
r 0.849185 4 3 ack 40 ------- 1 5.0 0.0 0 6
+ 0.849185 3 0 ack 40 ------- 1 5.0 0.0 0 6
- 0.849185 3 0 ack 40 ------- 1 5.0 0.0 0 6
r 0.858083 3 4 tcp 1000 ------- 2 1.0 6.0 1 8
+ 0.858083 4 6 tcp 1000 ------- 2 1.0 6.0 1 8
- 0.858083 4 6 tcp 1000 ------- 2 1.0 6.0 1 8
r 0.858163 3 4 tcp 1000 ------- 4 8.0 9.0 1 9
+ 0.858163 4 9 tcp 1000 ------- 4 8.0 9.0 1 9
- 0.858163 4 9 tcp 1000 ------- 4 8.0 9.0 1 9
r 0.87405 4 3 ack 40 ------- 3 7.0 2.0 0 7
+ 0.87405 3 2 ack 40 ------- 3 7.0 2.0 0 7
- 0.87405 3 2 ack 40 ------- 3 7.0 2.0 0 7
r 0.899505 3 0 ack 40 ------- 1 5.0 0.0 0 6
+ 0.899505 0 3 exp 1500 ------- 1 0.0 5.0 0 10
- 0.899505 0 3 exp 1500 ------- 1 0.0 5.0 0 10
r 0.92437 3 2 ack 40 ------- 3 7.0 2.0 0 7
+ 0.92437 2 3 exp 1000 ------- 3 2.0 7.0 0 11
- 0.92437 2 3 exp 1000 ------- 3 2.0 7.0 0 11
r 0.961505 0 3 exp 1500 ------- 1 0.0 5.0 0 10
+ 0.961505 3 4 exp 1500 ------- 1 0.0 5.0 0 10
- 0.961505 3 4 exp 1500 ------- 1 0.0 5.0 0 10
r 0.98237 2 3 exp 1000 ------- 3 2.0 7.0 0 11
+ 0.98237 3 4 exp 1000 ------- 3 2.0 7.0 0 11
- 0.98237 3 4 exp 1000 ------- 3 2.0 7.0 0 11
r 1.011625 3 4 exp 1500 ------- 1 0.0 5.0 0 10
+ 1.011625 4 5 exp 1500 ------- 1 0.0 5.0 0 10
- 1.011625 4 5 exp 1500 ------- 1 0.0 5.0 0 10
r 1.03245 3 4 exp 1000 ------- 3 2.0 7.0 0 11
+ 1.03245 4 7 exp 1000 ------- 3 2.0 7.0 0 11
- 1.03245 4 7 exp 1000 ------- 3 2.0 7.0 0 11
r 1.098083 4 6 tcp 1000 ------- 2 1.0 6.0 1 8
+ 1.098083 6 4 ack 40 ------- 2 6.0 1.0 1 12
- 1.098083 6 4 ack 40 ------- 2 6.0 1.0 1 12
r 1.098163 4 9 tcp 1000 ------- 4 8.0 9.0 1 9
+ 1.098163 9 4 ack 40 ------- 4 9.0 8.0 1 13
- 1.098163 9 4 ack 40 ------- 4 9.0 8.0 1 13
r 1.271625 4 5 exp 1500 ------- 1 0.0 5.0 0 10
+ 1.271625 5 4 ack 40 ------- 1 5.0 0.0 1 14
- 1.271625 5 4 ack 40 ------- 1 5.0 0.0 1 14
r 1.27245 4 7 exp 1000 ------- 3 2.0 7.0 0 11
+ 1.27245 7 4 ack 40 ------- 3 7.0 2.0 1 15
- 1.27245 7 4 ack 40 ------- 3 7.0 2.0 1 15
r 1.299683 6 4 ack 40 ------- 2 6.0 1.0 1 12
+ 1.299683 4 3 ack 40 ------- 2 6.0 1.0 1 12
- 1.299683 4 3 ack 40 ------- 2 6.0 1.0 1 12
r 1.299763 9 4 ack 40 ------- 4 9.0 8.0 1 13
+ 1.299763 4 3 ack 40 ------- 4 9.0 8.0 1 13
- 1.299763 4 3 ack 40 ------- 4 9.0 8.0 1 13
r 1.349686 4 3 ack 40 ------- 2 6.0 1.0 1 12
+ 1.349686 3 1 ack 40 ------- 2 6.0 1.0 1 12
- 1.349686 3 1 ack 40 ------- 2 6.0 1.0 1 12
r 1.349766 4 3 ack 40 ------- 4 9.0 8.0 1 13
+ 1.349766 3 8 ack 40 ------- 4 9.0 8.0 1 13
- 1.349766 3 8 ack 40 ------- 4 9.0 8.0 1 13
r 1.400006 3 1 ack 40 ------- 2 6.0 1.0 1 12
+ 1.400006 1 3 tcp 1000 ------- 2 1.0 6.0 2 16
- 1.400006 1 3 tcp 1000 ------- 2 1.0 6.0 2 16
+ 1.400006 1 3 tcp 1000 ------- 2 1.0 6.0 3 17
+ 1.400006 1 3 tcp 1000 ------- 2 1.0 6.0 4 18
r 1.400086 3 8 ack 40 ------- 4 9.0 8.0 1 13
+ 1.400086 8 3 tcp 1000 ------- 4 8.0 9.0 2 19
- 1.400086 8 3 tcp 1000 ------- 4 8.0 9.0 2 19
+ 1.400086 8 3 tcp 1000 ------- 4 8.0 9.0 3 20
+ 1.400086 8 3 tcp 1000 ------- 4 8.0 9.0 4 21
- 1.408006 1 3 tcp 1000 ------- 2 1.0 6.0 3 17
- 1.408086 8 3 tcp 1000 ------- 4 8.0 9.0 3 20
- 1.416006 1 3 tcp 1000 ------- 2 1.0 6.0 4 18
- 1.416086 8 3 tcp 1000 ------- 4 8.0 9.0 4 21
r 1.458006 1 3 tcp 1000 ------- 2 1.0 6.0 2 16
+ 1.458006 3 4 tcp 1000 ------- 2 1.0 6.0 2 16
- 1.458006 3 4 tcp 1000 ------- 2 1.0 6.0 2 16
r 1.458086 8 3 tcp 1000 ------- 4 8.0 9.0 2 19
+ 1.458086 3 4 tcp 1000 ------- 4 8.0 9.0 2 19
- 1.458086 3 4 tcp 1000 ------- 4 8.0 9.0 2 19
r 1.466006 1 3 tcp 1000 ------- 2 1.0 6.0 3 17
+ 1.466006 3 4 tcp 1000 ------- 2 1.0 6.0 3 17
- 1.466006 3 4 tcp 1000 ------- 2 1.0 6.0 3 17
r 1.466086 8 3 tcp 1000 ------- 4 8.0 9.0 3 20
+ 1.466086 3 4 tcp 1000 ------- 4 8.0 9.0 3 20
- 1.466086 3 4 tcp 1000 ------- 4 8.0 9.0 3 20
r 1.473225 5 4 ack 40 ------- 1 5.0 0.0 1 14
+ 1.473225 4 3 ack 40 ------- 1 5.0 0.0 1 14
- 1.473225 4 3 ack 40 ------- 1 5.0 0.0 1 14
r 1.474006 1 3 tcp 1000 ------- 2 1.0 6.0 4 18
+ 1.474006 3 4 tcp 1000 ------- 2 1.0 6.0 4 18
- 1.474006 3 4 tcp 1000 ------- 2 1.0 6.0 4 18
r 1.47405 7 4 ack 40 ------- 3 7.0 2.0 1 15
+ 1.47405 4 3 ack 40 ------- 3 7.0 2.0 1 15
- 1.47405 4 3 ack 40 ------- 3 7.0 2.0 1 15
r 1.474086 8 3 tcp 1000 ------- 4 8.0 9.0 4 21
+ 1.474086 3 4 tcp 1000 ------- 4 8.0 9.0 4 21
- 1.474086 3 4 tcp 1000 ------- 4 8.0 9.0 4 21
r 1.508086 3 4 tcp 1000 ------- 2 1.0 6.0 2 16
+ 1.508086 4 6 tcp 1000 ------- 2 1.0 6.0 2 16
- 1.508086 4 6 tcp 1000 ------- 2 1.0 6.0 2 16
r 1.508166 3 4 tcp 1000 ------- 4 8.0 9.0 2 19
+ 1.508166 4 9 tcp 1000 ------- 4 8.0 9.0 2 19
- 1.508166 4 9 tcp 1000 ------- 4 8.0 9.0 2 19
r 1.516086 3 4 tcp 1000 ------- 2 1.0 6.0 3 17
+ 1.516086 4 6 tcp 1000 ------- 2 1.0 6.0 3 17
r 1.516166 3 4 tcp 1000 ------- 4 8.0 9.0 3 20
+ 1.516166 4 9 tcp 1000 ------- 4 8.0 9.0 3 20
r 1.523228 4 3 ack 40 ------- 1 5.0 0.0 1 14
+ 1.523228 3 0 ack 40 ------- 1 5.0 0.0 1 14
- 1.523228 3 0 ack 40 ------- 1 5.0 0.0 1 14
r 1.524054 4 3 ack 40 ------- 3 7.0 2.0 1 15
+ 1.524054 3 2 ack 40 ------- 3 7.0 2.0 1 15
- 1.524054 3 2 ack 40 ------- 3 7.0 2.0 1 15
r 1.524086 3 4 tcp 1000 ------- 2 1.0 6.0 4 18
+ 1.524086 4 6 tcp 1000 ------- 2 1.0 6.0 4 18
r 1.524166 3 4 tcp 1000 ------- 4 8.0 9.0 4 21
+ 1.524166 4 9 tcp 1000 ------- 4 8.0 9.0 4 21
- 1.548086 4 6 tcp 1000 ------- 2 1.0 6.0 3 17
- 1.548166 4 9 tcp 1000 ------- 4 8.0 9.0 3 20
r 1.573548 3 0 ack 40 ------- 1 5.0 0.0 1 14
+ 1.573548 0 3 exp 1500 ------- 1 0.0 5.0 0 22
- 1.573548 0 3 exp 1500 ------- 1 0.0 5.0 0 22
+ 1.573548 0 3 exp 1500 ------- 1 0.0 5.0 0 23
+ 1.573548 0 3 exp 1500 ------- 1 0.0 5.0 0 24
r 1.574374 3 2 ack 40 ------- 3 7.0 2.0 1 15
+ 1.574374 2 3 exp 1000 ------- 3 2.0 7.0 0 25
- 1.574374 2 3 exp 1000 ------- 3 2.0 7.0 0 25
+ 1.574374 2 3 exp 1000 ------- 3 2.0 7.0 0 26
+ 1.574374 2 3 exp 1000 ------- 3 2.0 7.0 0 27
- 1.582374 2 3 exp 1000 ------- 3 2.0 7.0 0 26
- 1.585548 0 3 exp 1500 ------- 1 0.0 5.0 0 23
- 1.588086 4 6 tcp 1000 ------- 2 1.0 6.0 4 18
- 1.588166 4 9 tcp 1000 ------- 4 8.0 9.0 4 21
- 1.590374 2 3 exp 1000 ------- 3 2.0 7.0 0 27
- 1.597548 0 3 exp 1500 ------- 1 0.0 5.0 0 24
r 1.632374 2 3 exp 1000 ------- 3 2.0 7.0 0 25
+ 1.632374 3 4 exp 1000 ------- 3 2.0 7.0 0 25
- 1.632374 3 4 exp 1000 ------- 3 2.0 7.0 0 25
r 1.635548 0 3 exp 1500 ------- 1 0.0 5.0 0 22
+ 1.635548 3 4 exp 1500 ------- 1 0.0 5.0 0 22
- 1.635548 3 4 exp 1500 ------- 1 0.0 5.0 0 22
r 1.640374 2 3 exp 1000 ------- 3 2.0 7.0 0 26
+ 1.640374 3 4 exp 1000 ------- 3 2.0 7.0 0 26
- 1.640374 3 4 exp 1000 ------- 3 2.0 7.0 0 26
r 1.647548 0 3 exp 1500 ------- 1 0.0 5.0 0 23
+ 1.647548 3 4 exp 1500 ------- 1 0.0 5.0 0 23
- 1.647548 3 4 exp 1500 ------- 1 0.0 5.0 0 23
r 1.648374 2 3 exp 1000 ------- 3 2.0 7.0 0 27
+ 1.648374 3 4 exp 1000 ------- 3 2.0 7.0 0 27
- 1.648374 3 4 exp 1000 ------- 3 2.0 7.0 0 27
r 1.659548 0 3 exp 1500 ------- 1 0.0 5.0 0 24
+ 1.659548 3 4 exp 1500 ------- 1 0.0 5.0 0 24
- 1.659548 3 4 exp 1500 ------- 1 0.0 5.0 0 24
r 1.682454 3 4 exp 1000 ------- 3 2.0 7.0 0 25
+ 1.682454 4 7 exp 1000 ------- 3 2.0 7.0 0 25
- 1.682454 4 7 exp 1000 ------- 3 2.0 7.0 0 25
r 1.685668 3 4 exp 1500 ------- 1 0.0 5.0 0 22
+ 1.685668 4 5 exp 1500 ------- 1 0.0 5.0 0 22
- 1.685668 4 5 exp 1500 ------- 1 0.0 5.0 0 22
r 1.690454 3 4 exp 1000 ------- 3 2.0 7.0 0 26
+ 1.690454 4 7 exp 1000 ------- 3 2.0 7.0 0 26
r 1.697668 3 4 exp 1500 ------- 1 0.0 5.0 0 23
+ 1.697668 4 5 exp 1500 ------- 1 0.0 5.0 0 23
r 1.698454 3 4 exp 1000 ------- 3 2.0 7.0 0 27
+ 1.698454 4 7 exp 1000 ------- 3 2.0 7.0 0 27
r 1.709668 3 4 exp 1500 ------- 1 0.0 5.0 0 24
+ 1.709668 4 5 exp 1500 ------- 1 0.0 5.0 0 24
- 1.722454 4 7 exp 1000 ------- 3 2.0 7.0 0 26
- 1.745668 4 5 exp 1500 ------- 1 0.0 5.0 0 23
r 1.748086 4 6 tcp 1000 ------- 2 1.0 6.0 2 16
+ 1.748086 6 4 ack 40 ------- 2 6.0 1.0 2 28
- 1.748086 6 4 ack 40 ------- 2 6.0 1.0 2 28
r 1.748166 4 9 tcp 1000 ------- 4 8.0 9.0 2 19
+ 1.748166 9 4 ack 40 ------- 4 9.0 8.0 2 29
- 1.748166 9 4 ack 40 ------- 4 9.0 8.0 2 29
- 1.762454 4 7 exp 1000 ------- 3 2.0 7.0 0 27
r 1.788086 4 6 tcp 1000 ------- 2 1.0 6.0 3 17
+ 1.788086 6 4 ack 40 ------- 2 6.0 1.0 3 30
- 1.788086 6 4 ack 40 ------- 2 6.0 1.0 3 30
r 1.788166 4 9 tcp 1000 ------- 4 8.0 9.0 3 20
+ 1.788166 9 4 ack 40 ------- 4 9.0 8.0 3 31
- 1.788166 9 4 ack 40 ------- 4 9.0 8.0 3 31
- 1.805668 4 5 exp 1500 ------- 1 0.0 5.0 0 24
r 1.828086 4 6 tcp 1000 ------- 2 1.0 6.0 4 18
+ 1.828086 6 4 ack 40 ------- 2 6.0 1.0 4 32
- 1.828086 6 4 ack 40 ------- 2 6.0 1.0 4 32
r 1.828166 4 9 tcp 1000 ------- 4 8.0 9.0 4 21
+ 1.828166 9 4 ack 40 ------- 4 9.0 8.0 4 33
- 1.828166 9 4 ack 40 ------- 4 9.0 8.0 4 33
r 1.922454 4 7 exp 1000 ------- 3 2.0 7.0 0 25
+ 1.922454 7 4 ack 40 ------- 3 7.0 2.0 2 34
- 1.922454 7 4 ack 40 ------- 3 7.0 2.0 2 34
r 1.945668 4 5 exp 1500 ------- 1 0.0 5.0 0 22
+ 1.945668 5 4 ack 40 ------- 1 5.0 0.0 2 35
- 1.945668 5 4 ack 40 ------- 1 5.0 0.0 2 35
r 1.949686 6 4 ack 40 ------- 2 6.0 1.0 2 28
+ 1.949686 4 3 ack 40 ------- 2 6.0 1.0 2 28
- 1.949686 4 3 ack 40 ------- 2 6.0 1.0 2 28
r 1.949766 9 4 ack 40 ------- 4 9.0 8.0 2 29
+ 1.949766 4 3 ack 40 ------- 4 9.0 8.0 2 29
- 1.949766 4 3 ack 40 ------- 4 9.0 8.0 2 29
r 1.962454 4 7 exp 1000 ------- 3 2.0 7.0 0 26
+ 1.962454 7 4 ack 40 ------- 3 7.0 2.0 3 36
- 1.962454 7 4 ack 40 ------- 3 7.0 2.0 3 36
r 1.989686 6 4 ack 40 ------- 2 6.0 1.0 3 30
+ 1.989686 4 3 ack 40 ------- 2 6.0 1.0 3 30
- 1.989686 4 3 ack 40 ------- 2 6.0 1.0 3 30
r 1.989766 9 4 ack 40 ------- 4 9.0 8.0 3 31
+ 1.989766 4 3 ack 40 ------- 4 9.0 8.0 3 31
- 1.989766 4 3 ack 40 ------- 4 9.0 8.0 3 31
r 1.99969 4 3 ack 40 ------- 2 6.0 1.0 2 28
+ 1.99969 3 1 ack 40 ------- 2 6.0 1.0 2 28
- 1.99969 3 1 ack 40 ------- 2 6.0 1.0 2 28
r 1.99977 4 3 ack 40 ------- 4 9.0 8.0 2 29
+ 1.99977 3 8 ack 40 ------- 4 9.0 8.0 2 29
- 1.99977 3 8 ack 40 ------- 4 9.0 8.0 2 29
r 2.002454 4 7 exp 1000 ------- 3 2.0 7.0 0 27
+ 2.002454 7 4 ack 40 ------- 3 7.0 2.0 4 37
- 2.002454 7 4 ack 40 ------- 3 7.0 2.0 4 37
r 2.005668 4 5 exp 1500 ------- 1 0.0 5.0 0 23
+ 2.005668 5 4 ack 40 ------- 1 5.0 0.0 3 38
- 2.005668 5 4 ack 40 ------- 1 5.0 0.0 3 38
r 2.029686 6 4 ack 40 ------- 2 6.0 1.0 4 32
+ 2.029686 4 3 ack 40 ------- 2 6.0 1.0 4 32
- 2.029686 4 3 ack 40 ------- 2 6.0 1.0 4 32
r 2.029766 9 4 ack 40 ------- 4 9.0 8.0 4 33
+ 2.029766 4 3 ack 40 ------- 4 9.0 8.0 4 33
- 2.029766 4 3 ack 40 ------- 4 9.0 8.0 4 33
r 2.03969 4 3 ack 40 ------- 2 6.0 1.0 3 30
+ 2.03969 3 1 ack 40 ------- 2 6.0 1.0 3 30
- 2.03969 3 1 ack 40 ------- 2 6.0 1.0 3 30
r 2.03977 4 3 ack 40 ------- 4 9.0 8.0 3 31
+ 2.03977 3 8 ack 40 ------- 4 9.0 8.0 3 31
- 2.03977 3 8 ack 40 ------- 4 9.0 8.0 3 31
r 2.05001 3 1 ack 40 ------- 2 6.0 1.0 2 28
+ 2.05001 1 3 tcp 1000 ------- 2 1.0 6.0 5 39
- 2.05001 1 3 tcp 1000 ------- 2 1.0 6.0 5 39
r 2.05009 3 8 ack 40 ------- 4 9.0 8.0 2 29
+ 2.05009 8 3 tcp 1000 ------- 4 8.0 9.0 5 40
- 2.05009 8 3 tcp 1000 ------- 4 8.0 9.0 5 40
r 2.065668 4 5 exp 1500 ------- 1 0.0 5.0 0 24
+ 2.065668 5 4 ack 40 ------- 1 5.0 0.0 4 41
- 2.065668 5 4 ack 40 ------- 1 5.0 0.0 4 41
r 2.07969 4 3 ack 40 ------- 2 6.0 1.0 4 32
+ 2.07969 3 1 ack 40 ------- 2 6.0 1.0 4 32
- 2.07969 3 1 ack 40 ------- 2 6.0 1.0 4 32
r 2.07977 4 3 ack 40 ------- 4 9.0 8.0 4 33
+ 2.07977 3 8 ack 40 ------- 4 9.0 8.0 4 33
- 2.07977 3 8 ack 40 ------- 4 9.0 8.0 4 33
r 2.09001 3 1 ack 40 ------- 2 6.0 1.0 3 30
+ 2.09001 1 3 tcp 1000 ------- 2 1.0 6.0 6 42
- 2.09001 1 3 tcp 1000 ------- 2 1.0 6.0 6 42
r 2.09009 3 8 ack 40 ------- 4 9.0 8.0 3 31
+ 2.09009 8 3 tcp 1000 ------- 4 8.0 9.0 6 43
- 2.09009 8 3 tcp 1000 ------- 4 8.0 9.0 6 43
r 2.10801 1 3 tcp 1000 ------- 2 1.0 6.0 5 39
+ 2.10801 3 4 tcp 1000 ------- 2 1.0 6.0 5 39
- 2.10801 3 4 tcp 1000 ------- 2 1.0 6.0 5 39
r 2.10809 8 3 tcp 1000 ------- 4 8.0 9.0 5 40
+ 2.10809 3 4 tcp 1000 ------- 4 8.0 9.0 5 40
- 2.10809 3 4 tcp 1000 ------- 4 8.0 9.0 5 40
r 2.124054 7 4 ack 40 ------- 3 7.0 2.0 2 34
+ 2.124054 4 3 ack 40 ------- 3 7.0 2.0 2 34
- 2.124054 4 3 ack 40 ------- 3 7.0 2.0 2 34
r 2.13001 3 1 ack 40 ------- 2 6.0 1.0 4 32
+ 2.13001 1 3 tcp 1000 ------- 2 1.0 6.0 7 44
- 2.13001 1 3 tcp 1000 ------- 2 1.0 6.0 7 44
r 2.13009 3 8 ack 40 ------- 4 9.0 8.0 4 33
+ 2.13009 8 3 tcp 1000 ------- 4 8.0 9.0 7 45
- 2.13009 8 3 tcp 1000 ------- 4 8.0 9.0 7 45
r 2.147268 5 4 ack 40 ------- 1 5.0 0.0 2 35
+ 2.147268 4 3 ack 40 ------- 1 5.0 0.0 2 35
- 2.147268 4 3 ack 40 ------- 1 5.0 0.0 2 35
r 2.14801 1 3 tcp 1000 ------- 2 1.0 6.0 6 42
+ 2.14801 3 4 tcp 1000 ------- 2 1.0 6.0 6 42
- 2.14801 3 4 tcp 1000 ------- 2 1.0 6.0 6 42
r 2.14809 8 3 tcp 1000 ------- 4 8.0 9.0 6 43
+ 2.14809 3 4 tcp 1000 ------- 4 8.0 9.0 6 43
- 2.14809 3 4 tcp 1000 ------- 4 8.0 9.0 6 43
r 2.15809 3 4 tcp 1000 ------- 2 1.0 6.0 5 39
+ 2.15809 4 6 tcp 1000 ------- 2 1.0 6.0 5 39
- 2.15809 4 6 tcp 1000 ------- 2 1.0 6.0 5 39
r 2.15817 3 4 tcp 1000 ------- 4 8.0 9.0 5 40
+ 2.15817 4 9 tcp 1000 ------- 4 8.0 9.0 5 40
- 2.15817 4 9 tcp 1000 ------- 4 8.0 9.0 5 40
r 2.164054 7 4 ack 40 ------- 3 7.0 2.0 3 36
+ 2.164054 4 3 ack 40 ------- 3 7.0 2.0 3 36
- 2.164054 4 3 ack 40 ------- 3 7.0 2.0 3 36
r 2.174057 4 3 ack 40 ------- 3 7.0 2.0 2 34
+ 2.174057 3 2 ack 40 ------- 3 7.0 2.0 2 34
- 2.174057 3 2 ack 40 ------- 3 7.0 2.0 2 34
r 2.18801 1 3 tcp 1000 ------- 2 1.0 6.0 7 44
+ 2.18801 3 4 tcp 1000 ------- 2 1.0 6.0 7 44
- 2.18801 3 4 tcp 1000 ------- 2 1.0 6.0 7 44
r 2.18809 8 3 tcp 1000 ------- 4 8.0 9.0 7 45
+ 2.18809 3 4 tcp 1000 ------- 4 8.0 9.0 7 45
- 2.18809 3 4 tcp 1000 ------- 4 8.0 9.0 7 45
r 2.197272 4 3 ack 40 ------- 1 5.0 0.0 2 35
+ 2.197272 3 0 ack 40 ------- 1 5.0 0.0 2 35
- 2.197272 3 0 ack 40 ------- 1 5.0 0.0 2 35
r 2.19809 3 4 tcp 1000 ------- 2 1.0 6.0 6 42
+ 2.19809 4 6 tcp 1000 ------- 2 1.0 6.0 6 42
- 2.19809 4 6 tcp 1000 ------- 2 1.0 6.0 6 42
r 2.19817 3 4 tcp 1000 ------- 4 8.0 9.0 6 43
+ 2.19817 4 9 tcp 1000 ------- 4 8.0 9.0 6 43
- 2.19817 4 9 tcp 1000 ------- 4 8.0 9.0 6 43
r 2.204054 7 4 ack 40 ------- 3 7.0 2.0 4 37
+ 2.204054 4 3 ack 40 ------- 3 7.0 2.0 4 37
- 2.204054 4 3 ack 40 ------- 3 7.0 2.0 4 37
r 2.207268 5 4 ack 40 ------- 1 5.0 0.0 3 38
+ 2.207268 4 3 ack 40 ------- 1 5.0 0.0 3 38
- 2.207268 4 3 ack 40 ------- 1 5.0 0.0 3 38
r 2.214057 4 3 ack 40 ------- 3 7.0 2.0 3 36
+ 2.214057 3 2 ack 40 ------- 3 7.0 2.0 3 36
- 2.214057 3 2 ack 40 ------- 3 7.0 2.0 3 36
r 2.224377 3 2 ack 40 ------- 3 7.0 2.0 2 34
+ 2.224377 2 3 exp 1000 ------- 3 2.0 7.0 0 46
- 2.224377 2 3 exp 1000 ------- 3 2.0 7.0 0 46
r 2.23809 3 4 tcp 1000 ------- 2 1.0 6.0 7 44
+ 2.23809 4 6 tcp 1000 ------- 2 1.0 6.0 7 44
- 2.23809 4 6 tcp 1000 ------- 2 1.0 6.0 7 44
r 2.23817 3 4 tcp 1000 ------- 4 8.0 9.0 7 45
+ 2.23817 4 9 tcp 1000 ------- 4 8.0 9.0 7 45
- 2.23817 4 9 tcp 1000 ------- 4 8.0 9.0 7 45
r 2.247592 3 0 ack 40 ------- 1 5.0 0.0 2 35
+ 2.247592 0 3 exp 1500 ------- 1 0.0 5.0 0 47
- 2.247592 0 3 exp 1500 ------- 1 0.0 5.0 0 47
r 2.254057 4 3 ack 40 ------- 3 7.0 2.0 4 37
+ 2.254057 3 2 ack 40 ------- 3 7.0 2.0 4 37
- 2.254057 3 2 ack 40 ------- 3 7.0 2.0 4 37
r 2.257272 4 3 ack 40 ------- 1 5.0 0.0 3 38
+ 2.257272 3 0 ack 40 ------- 1 5.0 0.0 3 38
- 2.257272 3 0 ack 40 ------- 1 5.0 0.0 3 38
r 2.264377 3 2 ack 40 ------- 3 7.0 2.0 3 36
+ 2.264377 2 3 exp 1000 ------- 3 2.0 7.0 0 48
- 2.264377 2 3 exp 1000 ------- 3 2.0 7.0 0 48
r 2.267268 5 4 ack 40 ------- 1 5.0 0.0 4 41
+ 2.267268 4 3 ack 40 ------- 1 5.0 0.0 4 41
- 2.267268 4 3 ack 40 ------- 1 5.0 0.0 4 41
r 2.282377 2 3 exp 1000 ------- 3 2.0 7.0 0 46
+ 2.282377 3 4 exp 1000 ------- 3 2.0 7.0 0 46
- 2.282377 3 4 exp 1000 ------- 3 2.0 7.0 0 46
r 2.304377 3 2 ack 40 ------- 3 7.0 2.0 4 37
+ 2.304377 2 3 exp 1000 ------- 3 2.0 7.0 0 49
- 2.304377 2 3 exp 1000 ------- 3 2.0 7.0 0 49
r 2.307592 3 0 ack 40 ------- 1 5.0 0.0 3 38
+ 2.307592 0 3 exp 1500 ------- 1 0.0 5.0 0 50
- 2.307592 0 3 exp 1500 ------- 1 0.0 5.0 0 50
r 2.309592 0 3 exp 1500 ------- 1 0.0 5.0 0 47
+ 2.309592 3 4 exp 1500 ------- 1 0.0 5.0 0 47
- 2.309592 3 4 exp 1500 ------- 1 0.0 5.0 0 47
r 2.317272 4 3 ack 40 ------- 1 5.0 0.0 4 41
+ 2.317272 3 0 ack 40 ------- 1 5.0 0.0 4 41
- 2.317272 3 0 ack 40 ------- 1 5.0 0.0 4 41
r 2.322377 2 3 exp 1000 ------- 3 2.0 7.0 0 48
+ 2.322377 3 4 exp 1000 ------- 3 2.0 7.0 0 48
- 2.322377 3 4 exp 1000 ------- 3 2.0 7.0 0 48
r 2.332457 3 4 exp 1000 ------- 3 2.0 7.0 0 46
+ 2.332457 4 7 exp 1000 ------- 3 2.0 7.0 0 46
- 2.332457 4 7 exp 1000 ------- 3 2.0 7.0 0 46
r 2.359712 3 4 exp 1500 ------- 1 0.0 5.0 0 47
+ 2.359712 4 5 exp 1500 ------- 1 0.0 5.0 0 47
- 2.359712 4 5 exp 1500 ------- 1 0.0 5.0 0 47
r 2.362377 2 3 exp 1000 ------- 3 2.0 7.0 0 49
+ 2.362377 3 4 exp 1000 ------- 3 2.0 7.0 0 49
- 2.362377 3 4 exp 1000 ------- 3 2.0 7.0 0 49
r 2.367592 3 0 ack 40 ------- 1 5.0 0.0 4 41
+ 2.367592 0 3 exp 1500 ------- 1 0.0 5.0 0 51
- 2.367592 0 3 exp 1500 ------- 1 0.0 5.0 0 51
r 2.369592 0 3 exp 1500 ------- 1 0.0 5.0 0 50
+ 2.369592 3 4 exp 1500 ------- 1 0.0 5.0 0 50
- 2.369592 3 4 exp 1500 ------- 1 0.0 5.0 0 50
r 2.372457 3 4 exp 1000 ------- 3 2.0 7.0 0 48
+ 2.372457 4 7 exp 1000 ------- 3 2.0 7.0 0 48
- 2.372457 4 7 exp 1000 ------- 3 2.0 7.0 0 48
r 2.39809 4 6 tcp 1000 ------- 2 1.0 6.0 5 39
+ 2.39809 6 4 ack 40 ------- 2 6.0 1.0 5 52
- 2.39809 6 4 ack 40 ------- 2 6.0 1.0 5 52
r 2.39817 4 9 tcp 1000 ------- 4 8.0 9.0 5 40
+ 2.39817 9 4 ack 40 ------- 4 9.0 8.0 5 53
- 2.39817 9 4 ack 40 ------- 4 9.0 8.0 5 53
r 2.412457 3 4 exp 1000 ------- 3 2.0 7.0 0 49
+ 2.412457 4 7 exp 1000 ------- 3 2.0 7.0 0 49
- 2.412457 4 7 exp 1000 ------- 3 2.0 7.0 0 49
r 2.419712 3 4 exp 1500 ------- 1 0.0 5.0 0 50
+ 2.419712 4 5 exp 1500 ------- 1 0.0 5.0 0 50
- 2.419712 4 5 exp 1500 ------- 1 0.0 5.0 0 50
r 2.429592 0 3 exp 1500 ------- 1 0.0 5.0 0 51
+ 2.429592 3 4 exp 1500 ------- 1 0.0 5.0 0 51
- 2.429592 3 4 exp 1500 ------- 1 0.0 5.0 0 51
r 2.43809 4 6 tcp 1000 ------- 2 1.0 6.0 6 42
+ 2.43809 6 4 ack 40 ------- 2 6.0 1.0 6 54
- 2.43809 6 4 ack 40 ------- 2 6.0 1.0 6 54
r 2.43817 4 9 tcp 1000 ------- 4 8.0 9.0 6 43
+ 2.43817 9 4 ack 40 ------- 4 9.0 8.0 6 55
- 2.43817 9 4 ack 40 ------- 4 9.0 8.0 6 55
r 2.47809 4 6 tcp 1000 ------- 2 1.0 6.0 7 44
+ 2.47809 6 4 ack 40 ------- 2 6.0 1.0 7 56
- 2.47809 6 4 ack 40 ------- 2 6.0 1.0 7 56
r 2.47817 4 9 tcp 1000 ------- 4 8.0 9.0 7 45
+ 2.47817 9 4 ack 40 ------- 4 9.0 8.0 7 57
- 2.47817 9 4 ack 40 ------- 4 9.0 8.0 7 57
r 2.479712 3 4 exp 1500 ------- 1 0.0 5.0 0 51
+ 2.479712 4 5 exp 1500 ------- 1 0.0 5.0 0 51
- 2.479712 4 5 exp 1500 ------- 1 0.0 5.0 0 51
r 2.572457 4 7 exp 1000 ------- 3 2.0 7.0 0 46
+ 2.572457 7 4 ack 40 ------- 3 7.0 2.0 5 58
- 2.572457 7 4 ack 40 ------- 3 7.0 2.0 5 58
r 2.59969 6 4 ack 40 ------- 2 6.0 1.0 5 52
+ 2.59969 4 3 ack 40 ------- 2 6.0 1.0 5 52
- 2.59969 4 3 ack 40 ------- 2 6.0 1.0 5 52
r 2.59977 9 4 ack 40 ------- 4 9.0 8.0 5 53
+ 2.59977 4 3 ack 40 ------- 4 9.0 8.0 5 53
- 2.59977 4 3 ack 40 ------- 4 9.0 8.0 5 53
r 2.612457 4 7 exp 1000 ------- 3 2.0 7.0 0 48
+ 2.612457 7 4 ack 40 ------- 3 7.0 2.0 6 59
- 2.612457 7 4 ack 40 ------- 3 7.0 2.0 6 59
r 2.619712 4 5 exp 1500 ------- 1 0.0 5.0 0 47
+ 2.619712 5 4 ack 40 ------- 1 5.0 0.0 5 60
- 2.619712 5 4 ack 40 ------- 1 5.0 0.0 5 60
r 2.63969 6 4 ack 40 ------- 2 6.0 1.0 6 54
+ 2.63969 4 3 ack 40 ------- 2 6.0 1.0 6 54
- 2.63969 4 3 ack 40 ------- 2 6.0 1.0 6 54
r 2.63977 9 4 ack 40 ------- 4 9.0 8.0 6 55
+ 2.63977 4 3 ack 40 ------- 4 9.0 8.0 6 55
- 2.63977 4 3 ack 40 ------- 4 9.0 8.0 6 55
r 2.649693 4 3 ack 40 ------- 2 6.0 1.0 5 52
+ 2.649693 3 1 ack 40 ------- 2 6.0 1.0 5 52
- 2.649693 3 1 ack 40 ------- 2 6.0 1.0 5 52
r 2.649773 4 3 ack 40 ------- 4 9.0 8.0 5 53
+ 2.649773 3 8 ack 40 ------- 4 9.0 8.0 5 53
- 2.649773 3 8 ack 40 ------- 4 9.0 8.0 5 53
r 2.652457 4 7 exp 1000 ------- 3 2.0 7.0 0 49
+ 2.652457 7 4 ack 40 ------- 3 7.0 2.0 7 61
- 2.652457 7 4 ack 40 ------- 3 7.0 2.0 7 61
r 2.67969 6 4 ack 40 ------- 2 6.0 1.0 7 56
+ 2.67969 4 3 ack 40 ------- 2 6.0 1.0 7 56
- 2.67969 4 3 ack 40 ------- 2 6.0 1.0 7 56
r 2.679712 4 5 exp 1500 ------- 1 0.0 5.0 0 50
+ 2.679712 5 4 ack 40 ------- 1 5.0 0.0 6 62
- 2.679712 5 4 ack 40 ------- 1 5.0 0.0 6 62
r 2.67977 9 4 ack 40 ------- 4 9.0 8.0 7 57
+ 2.67977 4 3 ack 40 ------- 4 9.0 8.0 7 57
- 2.67977 4 3 ack 40 ------- 4 9.0 8.0 7 57
r 2.689693 4 3 ack 40 ------- 2 6.0 1.0 6 54
+ 2.689693 3 1 ack 40 ------- 2 6.0 1.0 6 54
- 2.689693 3 1 ack 40 ------- 2 6.0 1.0 6 54
r 2.689773 4 3 ack 40 ------- 4 9.0 8.0 6 55
+ 2.689773 3 8 ack 40 ------- 4 9.0 8.0 6 55
- 2.689773 3 8 ack 40 ------- 4 9.0 8.0 6 55
r 2.700013 3 1 ack 40 ------- 2 6.0 1.0 5 52
+ 2.700013 1 3 tcp 1000 ------- 2 1.0 6.0 8 63
- 2.700013 1 3 tcp 1000 ------- 2 1.0 6.0 8 63
+ 2.700013 1 3 tcp 1000 ------- 2 1.0 6.0 9 64
r 2.700093 3 8 ack 40 ------- 4 9.0 8.0 5 53
+ 2.700093 8 3 tcp 1000 ------- 4 8.0 9.0 8 65
- 2.700093 8 3 tcp 1000 ------- 4 8.0 9.0 8 65
+ 2.700093 8 3 tcp 1000 ------- 4 8.0 9.0 9 66
- 2.708013 1 3 tcp 1000 ------- 2 1.0 6.0 9 64
- 2.708093 8 3 tcp 1000 ------- 4 8.0 9.0 9 66
r 2.729693 4 3 ack 40 ------- 2 6.0 1.0 7 56
+ 2.729693 3 1 ack 40 ------- 2 6.0 1.0 7 56
- 2.729693 3 1 ack 40 ------- 2 6.0 1.0 7 56
r 2.729773 4 3 ack 40 ------- 4 9.0 8.0 7 57
+ 2.729773 3 8 ack 40 ------- 4 9.0 8.0 7 57
- 2.729773 3 8 ack 40 ------- 4 9.0 8.0 7 57
r 2.739712 4 5 exp 1500 ------- 1 0.0 5.0 0 51
+ 2.739712 5 4 ack 40 ------- 1 5.0 0.0 7 67
- 2.739712 5 4 ack 40 ------- 1 5.0 0.0 7 67
r 2.740013 3 1 ack 40 ------- 2 6.0 1.0 6 54
+ 2.740013 1 3 tcp 1000 ------- 2 1.0 6.0 10 68
- 2.740013 1 3 tcp 1000 ------- 2 1.0 6.0 10 68
+ 2.740013 1 3 tcp 1000 ------- 2 1.0 6.0 11 69
r 2.740093 3 8 ack 40 ------- 4 9.0 8.0 6 55
+ 2.740093 8 3 tcp 1000 ------- 4 8.0 9.0 10 70
- 2.740093 8 3 tcp 1000 ------- 4 8.0 9.0 10 70
+ 2.740093 8 3 tcp 1000 ------- 4 8.0 9.0 11 71
- 2.748013 1 3 tcp 1000 ------- 2 1.0 6.0 11 69
- 2.748093 8 3 tcp 1000 ------- 4 8.0 9.0 11 71
r 2.758013 1 3 tcp 1000 ------- 2 1.0 6.0 8 63
+ 2.758013 3 4 tcp 1000 ------- 2 1.0 6.0 8 63
- 2.758013 3 4 tcp 1000 ------- 2 1.0 6.0 8 63
r 2.758093 8 3 tcp 1000 ------- 4 8.0 9.0 8 65
+ 2.758093 3 4 tcp 1000 ------- 4 8.0 9.0 8 65
- 2.758093 3 4 tcp 1000 ------- 4 8.0 9.0 8 65
r 2.766013 1 3 tcp 1000 ------- 2 1.0 6.0 9 64
+ 2.766013 3 4 tcp 1000 ------- 2 1.0 6.0 9 64
- 2.766013 3 4 tcp 1000 ------- 2 1.0 6.0 9 64
r 2.766093 8 3 tcp 1000 ------- 4 8.0 9.0 9 66
+ 2.766093 3 4 tcp 1000 ------- 4 8.0 9.0 9 66
- 2.766093 3 4 tcp 1000 ------- 4 8.0 9.0 9 66
r 2.774057 7 4 ack 40 ------- 3 7.0 2.0 5 58
+ 2.774057 4 3 ack 40 ------- 3 7.0 2.0 5 58
- 2.774057 4 3 ack 40 ------- 3 7.0 2.0 5 58
r 2.780013 3 1 ack 40 ------- 2 6.0 1.0 7 56
+ 2.780013 1 3 tcp 1000 ------- 2 1.0 6.0 12 72
- 2.780013 1 3 tcp 1000 ------- 2 1.0 6.0 12 72
+ 2.780013 1 3 tcp 1000 ------- 2 1.0 6.0 13 73
r 2.780093 3 8 ack 40 ------- 4 9.0 8.0 7 57
+ 2.780093 8 3 tcp 1000 ------- 4 8.0 9.0 12 74
- 2.780093 8 3 tcp 1000 ------- 4 8.0 9.0 12 74
+ 2.780093 8 3 tcp 1000 ------- 4 8.0 9.0 13 75
- 2.788013 1 3 tcp 1000 ------- 2 1.0 6.0 13 73
- 2.788093 8 3 tcp 1000 ------- 4 8.0 9.0 13 75
r 2.798013 1 3 tcp 1000 ------- 2 1.0 6.0 10 68
+ 2.798013 3 4 tcp 1000 ------- 2 1.0 6.0 10 68
- 2.798013 3 4 tcp 1000 ------- 2 1.0 6.0 10 68
r 2.798093 8 3 tcp 1000 ------- 4 8.0 9.0 10 70
+ 2.798093 3 4 tcp 1000 ------- 4 8.0 9.0 10 70
- 2.798093 3 4 tcp 1000 ------- 4 8.0 9.0 10 70
r 2.806013 1 3 tcp 1000 ------- 2 1.0 6.0 11 69
+ 2.806013 3 4 tcp 1000 ------- 2 1.0 6.0 11 69
- 2.806013 3 4 tcp 1000 ------- 2 1.0 6.0 11 69
r 2.806093 8 3 tcp 1000 ------- 4 8.0 9.0 11 71
+ 2.806093 3 4 tcp 1000 ------- 4 8.0 9.0 11 71
- 2.806093 3 4 tcp 1000 ------- 4 8.0 9.0 11 71
r 2.808093 3 4 tcp 1000 ------- 2 1.0 6.0 8 63
+ 2.808093 4 6 tcp 1000 ------- 2 1.0 6.0 8 63
- 2.808093 4 6 tcp 1000 ------- 2 1.0 6.0 8 63
r 2.808173 3 4 tcp 1000 ------- 4 8.0 9.0 8 65
+ 2.808173 4 9 tcp 1000 ------- 4 8.0 9.0 8 65
- 2.808173 4 9 tcp 1000 ------- 4 8.0 9.0 8 65
r 2.814057 7 4 ack 40 ------- 3 7.0 2.0 6 59
+ 2.814057 4 3 ack 40 ------- 3 7.0 2.0 6 59
- 2.814057 4 3 ack 40 ------- 3 7.0 2.0 6 59
r 2.816093 3 4 tcp 1000 ------- 2 1.0 6.0 9 64
+ 2.816093 4 6 tcp 1000 ------- 2 1.0 6.0 9 64
r 2.816173 3 4 tcp 1000 ------- 4 8.0 9.0 9 66
+ 2.816173 4 9 tcp 1000 ------- 4 8.0 9.0 9 66
r 2.821312 5 4 ack 40 ------- 1 5.0 0.0 5 60
+ 2.821312 4 3 ack 40 ------- 1 5.0 0.0 5 60
- 2.821312 4 3 ack 40 ------- 1 5.0 0.0 5 60
r 2.82406 4 3 ack 40 ------- 3 7.0 2.0 5 58
+ 2.82406 3 2 ack 40 ------- 3 7.0 2.0 5 58
- 2.82406 3 2 ack 40 ------- 3 7.0 2.0 5 58
r 2.838013 1 3 tcp 1000 ------- 2 1.0 6.0 12 72
+ 2.838013 3 4 tcp 1000 ------- 2 1.0 6.0 12 72
- 2.838013 3 4 tcp 1000 ------- 2 1.0 6.0 12 72
r 2.838093 8 3 tcp 1000 ------- 4 8.0 9.0 12 74
+ 2.838093 3 4 tcp 1000 ------- 4 8.0 9.0 12 74
- 2.838093 3 4 tcp 1000 ------- 4 8.0 9.0 12 74
r 2.846013 1 3 tcp 1000 ------- 2 1.0 6.0 13 73
+ 2.846013 3 4 tcp 1000 ------- 2 1.0 6.0 13 73
- 2.846013 3 4 tcp 1000 ------- 2 1.0 6.0 13 73
r 2.846093 8 3 tcp 1000 ------- 4 8.0 9.0 13 75
+ 2.846093 3 4 tcp 1000 ------- 4 8.0 9.0 13 75
- 2.846093 3 4 tcp 1000 ------- 4 8.0 9.0 13 75
r 2.848093 3 4 tcp 1000 ------- 2 1.0 6.0 10 68
+ 2.848093 4 6 tcp 1000 ------- 2 1.0 6.0 10 68
- 2.848093 4 6 tcp 1000 ------- 2 1.0 6.0 9 64
r 2.848173 3 4 tcp 1000 ------- 4 8.0 9.0 10 70
+ 2.848173 4 9 tcp 1000 ------- 4 8.0 9.0 10 70
- 2.848173 4 9 tcp 1000 ------- 4 8.0 9.0 9 66
r 2.854057 7 4 ack 40 ------- 3 7.0 2.0 7 61
+ 2.854057 4 3 ack 40 ------- 3 7.0 2.0 7 61
- 2.854057 4 3 ack 40 ------- 3 7.0 2.0 7 61
r 2.856093 3 4 tcp 1000 ------- 2 1.0 6.0 11 69
+ 2.856093 4 6 tcp 1000 ------- 2 1.0 6.0 11 69
r 2.856173 3 4 tcp 1000 ------- 4 8.0 9.0 11 71
+ 2.856173 4 9 tcp 1000 ------- 4 8.0 9.0 11 71
r 2.86406 4 3 ack 40 ------- 3 7.0 2.0 6 59
+ 2.86406 3 2 ack 40 ------- 3 7.0 2.0 6 59
- 2.86406 3 2 ack 40 ------- 3 7.0 2.0 6 59
r 2.871315 4 3 ack 40 ------- 1 5.0 0.0 5 60
+ 2.871315 3 0 ack 40 ------- 1 5.0 0.0 5 60
- 2.871315 3 0 ack 40 ------- 1 5.0 0.0 5 60
r 2.87438 3 2 ack 40 ------- 3 7.0 2.0 5 58
+ 2.87438 2 3 exp 1000 ------- 3 2.0 7.0 0 76
- 2.87438 2 3 exp 1000 ------- 3 2.0 7.0 0 76
+ 2.87438 2 3 exp 1000 ------- 3 2.0 7.0 0 77
r 2.881312 5 4 ack 40 ------- 1 5.0 0.0 6 62
+ 2.881312 4 3 ack 40 ------- 1 5.0 0.0 6 62
- 2.881312 4 3 ack 40 ------- 1 5.0 0.0 6 62
- 2.88238 2 3 exp 1000 ------- 3 2.0 7.0 0 77
r 2.888093 3 4 tcp 1000 ------- 2 1.0 6.0 12 72
+ 2.888093 4 6 tcp 1000 ------- 2 1.0 6.0 12 72
- 2.888093 4 6 tcp 1000 ------- 2 1.0 6.0 10 68
r 2.888173 3 4 tcp 1000 ------- 4 8.0 9.0 12 74
+ 2.888173 4 9 tcp 1000 ------- 4 8.0 9.0 12 74
- 2.888173 4 9 tcp 1000 ------- 4 8.0 9.0 10 70
r 2.896093 3 4 tcp 1000 ------- 2 1.0 6.0 13 73
+ 2.896093 4 6 tcp 1000 ------- 2 1.0 6.0 13 73
r 2.896173 3 4 tcp 1000 ------- 4 8.0 9.0 13 75
+ 2.896173 4 9 tcp 1000 ------- 4 8.0 9.0 13 75
r 2.90406 4 3 ack 40 ------- 3 7.0 2.0 7 61