V -t * -v 1.0a5 -a 0
A -t * -n 1 -p 0 -o 0x7fffffff -c 30 -a 1
A -t * -h 1 -m 1073741823 -s 0
c -t * -i 4 -n Yellow
c -t * -i 1 -n Green
c -t * -i 2 -n Blue
c -t * -i 3 -n Red
n -t * -a 8 -s 8 -S UP -v circle -c yellow -i yellow
n -t * -a 4 -s 4 -S UP -v box -c black -i black
n -t * -a 0 -s 0 -S UP -v circle -c green -i green
n -t * -a 9 -s 9 -S UP -v circle -c yellow -i yellow
n -t * -a 5 -s 5 -S UP -v circle -c green -i green
n -t * -a 1 -s 1 -S UP -v circle -c blue -i blue
n -t * -a 6 -s 6 -S UP -v circle -c blue -i blue
n -t * -a 2 -s 2 -S UP -v circle -c red -i red
n -t * -a 7 -s 7 -S UP -v circle -c red -i red
n -t * -a 3 -s 3 -S UP -v box -c black -i black
l -t * -s 3 -d 4 -S UP -r 100000000 -D 0.050000000000000003 -c black -o right
l -t * -s 4 -d 6 -S UP -r 200000 -D 0.20000000000000001 -c black -o right
l -t * -s 4 -d 5 -S UP -r 200000 -D 0.20000000000000001 -c black -o right-up
l -t * -s 0 -d 3 -S UP -r 1000000 -D 0.050000000000000003 -c black -o right-down
l -t * -s 1 -d 3 -S UP -r 1000000 -D 0.050000000000000003 -c black -o right
l -t * -s 2 -d 3 -S UP -r 1000000 -D 0.050000000000000003 -c black -o right-up
l -t * -s 4 -d 7 -S UP -r 200000 -D 0.20000000000000001 -c black -o right-down
l -t * -s 8 -d 3 -S UP -r 1000000 -D 0.050000000000000003 -c black -o right-up
l -t * -s 4 -d 9 -S UP -r 200000 -D 0.20000000000000001 -c black -o right-down
+ -t 0.1 -s 1 -d 3 -p tcp -e 1000 -c 2 -i 0 -a 2 -x {1.0 6.0 0 ------- null}
- -t 0.1 -s 1 -d 3 -p tcp -e 1000 -c 2 -i 0 -a 2 -x {1.0 6.0 0 ------- null}
h -t 0.1 -s 1 -d 3 -p tcp -e 1000 -c 2 -i 0 -a 2 -x {1.0 6.0 -1 ------- null}
+ -t 0.1 -s 8 -d 3 -p tcp -e 1000 -c 4 -i 1 -a 4 -x {8.0 9.0 0 ------- null}
- -t 0.1 -s 8 -d 3 -p tcp -e 1000 -c 4 -i 1 -a 4 -x {8.0 9.0 0 ------- null}
h -t 0.1 -s 8 -d 3 -p tcp -e 1000 -c 4 -i 1 -a 4 -x {8.0 9.0 -1 ------- null}
r -t 0.158 -s 1 -d 3 -p tcp -e 1000 -c 2 -i 0 -a 2 -x {1.0 6.0 0 ------- null}
+ -t 0.158 -s 3 -d 4 -p tcp -e 1000 -c 2 -i 0 -a 2 -x {1.0 6.0 0 ------- null}
- -t 0.158 -s 3 -d 4 -p tcp -e 1000 -c 2 -i 0 -a 2 -x {1.0 6.0 0 ------- null}
h -t 0.158 -s 3 -d 4 -p tcp -e 1000 -c 2 -i 0 -a 2 -x {1.0 6.0 -1 ------- null}
r -t 0.158 -s 8 -d 3 -p tcp -e 1000 -c 4 -i 1 -a 4 -x {8.0 9.0 0 ------- null}
+ -t 0.158 -s 3 -d 4 -p tcp -e 1000 -c 4 -i 1 -a 4 -x {8.0 9.0 0 ------- null}
- -t 0.15808 -s 3 -d 4 -p tcp -e 1000 -c 4 -i 1 -a 4 -x {8.0 9.0 0 ------- null}
h -t 0.15808 -s 3 -d 4 -p tcp -e 1000 -c 4 -i 1 -a 4 -x {8.0 9.0 -1 ------- null}
r -t 0.20808 -s 3 -d 4 -p tcp -e 1000 -c 2 -i 0 -a 2 -x {1.0 6.0 0 ------- null}
+ -t 0.20808 -s 4 -d 6 -p tcp -e 1000 -c 2 -i 0 -a 2 -x {1.0 6.0 0 ------- null}
- -t 0.20808 -s 4 -d 6 -p tcp -e 1000 -c 2 -i 0 -a 2 -x {1.0 6.0 0 ------- null}
h -t 0.20808 -s 4 -d 6 -p tcp -e 1000 -c 2 -i 0 -a 2 -x {1.0 6.0 -1 ------- null}
r -t 0.20816 -s 3 -d 4 -p tcp -e 1000 -c 4 -i 1 -a 4 -x {8.0 9.0 0 ------- null}
+ -t 0.20816 -s 4 -d 9 -p tcp -e 1000 -c 4 -i 1 -a 4 -x {8.0 9.0 0 ------- null}
- -t 0.20816 -s 4 -d 9 -p tcp -e 1000 -c 4 -i 1 -a 4 -x {8.0 9.0 0 ------- null}
h -t 0.20816 -s 4 -d 9 -p tcp -e 1000 -c 4 -i 1 -a 4 -x {8.0 9.0 -1 ------- null}
+ -t 0.225462013838808 -s 0 -d 3 -p exp -e 1500 -c 1 -i 2 -a 1 -x {0.0 5.0 0 ------- null}
- -t 0.225462013838808 -s 0 -d 3 -p exp -e 1500 -c 1 -i 2 -a 1 -x {0.0 5.0 0 ------- null}
h -t 0.225462013838808 -s 0 -d 3 -p exp -e 1500 -c 1 -i 2 -a 1 -x {0.0 5.0 -1 ------- null}
+ -t 0.2743672170149 -s 2 -d 3 -p exp -e 1000 -c 3 -i 3 -a 3 -x {2.0 7.0 0 ------- null}
- -t 0.2743672170149 -s 2 -d 3 -p exp -e 1000 -c 3 -i 3 -a 3 -x {2.0 7.0 0 ------- null}
h -t 0.2743672170149 -s 2 -d 3 -p exp -e 1000 -c 3 -i 3 -a 3 -x {2.0 7.0 -1 ------- null}
r -t 0.287462013838808 -s 0 -d 3 -p exp -e 1500 -c 1 -i 2 -a 1 -x {0.0 5.0 0 ------- null}
+ -t 0.287462013838808 -s 3 -d 4 -p exp -e 1500 -c 1 -i 2 -a 1 -x {0.0 5.0 0 ------- null}
- -t 0.287462013838808 -s 3 -d 4 -p exp -e 1500 -c 1 -i 2 -a 1 -x {0.0 5.0 0 ------- null}
h -t 0.287462013838808 -s 3 -d 4 -p exp -e 1500 -c 1 -i 2 -a 1 -x {0.0 5.0 -1 ------- null}
r -t 0.3323672170149 -s 2 -d 3 -p exp -e 1000 -c 3 -i 3 -a 3 -x {2.0 7.0 0 ------- null}
+ -t 0.3323672170149 -s 3 -d 4 -p exp -e 1000 -c 3 -i 3 -a 3 -x {2.0 7.0 0 ------- null}
- -t 0.3323672170149 -s 3 -d 4 -p exp -e 1000 -c 3 -i 3 -a 3 -x {2.0 7.0 0 ------- null}
h -t 0.3323672170149 -s 3 -d 4 -p exp -e 1000 -c 3 -i 3 -a 3 -x {2.0 7.0 -1 ------- null}
r -t 0.337582013838808 -s 3 -d 4 -p exp -e 1500 -c 1 -i 2 -a 1 -x {0.0 5.0 0 ------- null}
+ -t 0.337582013838808 -s 4 -d 5 -p exp -e 1500 -c 1 -i 2 -a 1 -x {0.0 5.0 0 ------- null}
- -t 0.337582013838808 -s 4 -d 5 -p exp -e 1500 -c 1 -i 2 -a 1 -x {0.0 5.0 0 ------- null}
h -t 0.337582013838808 -s 4 -d 5 -p exp -e 1500 -c 1 -i 2 -a 1 -x {0.0 5.0 -1 ------- null}
r -t 0.3824472170149 -s 3 -d 4 -p exp -e 1000 -c 3 -i 3 -a 3 -x {2.0 7.0 0 ------- null}
+ -t 0.3824472170149 -s 4 -d 7 -p exp -e 1000 -c 3 -i 3 -a 3 -x {2.0 7.0 0 ------- null}
- -t 0.3824472170149 -s 4 -d 7 -p exp -e 1000 -c 3 -i 3 -a 3 -x {2.0 7.0 0 ------- null}
h -t 0.3824472170149 -s 4 -d 7 -p exp -e 1000 -c 3 -i 3 -a 3 -x {2.0 7.0 -1 ------- null}
r -t 0.44808 -s 4 -d 6 -p tcp -e 1000 -c 2 -i 0 -a 2 -x {1.0 6.0 0 ------- null}
+ -t 0.44808 -s 6 -d 4 -p ack -e 40 -c 2 -i 4 -a 2 -x {6.0 1.0 0 ------- null}
- -t 0.44808 -s 6 -d 4 -p ack -e 40 -c 2 -i 4 -a 2 -x {6.0 1.0 0 ------- null}
h -t 0.44808 -s 6 -d 4 -p ack -e 40 -c 2 -i 4 -a 2 -x {6.0 1.0 -1 ------- null}
r -t 0.44816 -s 4 -d 9 -p tcp -e 1000 -c 4 -i 1 -a 4 -x {8.0 9.0 0 ------- null}
+ -t 0.44816 -s 9 -d 4 -p ack -e 40 -c 4 -i 5 -a 4 -x {9.0 8.0 0 ------- null}
- -t 0.44816 -s 9 -d 4 -p ack -e 40 -c 4 -i 5 -a 4 -x {9.0 8.0 0 ------- null}
h -t 0.44816 -s 9 -d 4 -p ack -e 40 -c 4 -i 5 -a 4 -x {9.0 8.0 -1 ------- null}
r -t 0.597582013838808 -s 4 -d 5 -p exp -e 1500 -c 1 -i 2 -a 1 -x {0.0 5.0 0 ------- null}
+ -t 0.597582013838808 -s 5 -d 4 -p ack -e 40 -c 1 -i 6 -a 1 -x {5.0 0.0 0 ------- null}
- -t 0.597582013838808 -s 5 -d 4 -p ack -e 40 -c 1 -i 6 -a 1 -x {5.0 0.0 0 ------- null}
h -t 0.597582013838808 -s 5 -d 4 -p ack -e 40 -c 1 -i 6 -a 1 -x {5.0 0.0 -1 ------- null}
r -t 0.6224472170149 -s 4 -d 7 -p exp -e 1000 -c 3 -i 3 -a 3 -x {2.0 7.0 0 ------- null}
+ -t 0.6224472170149 -s 7 -d 4 -p ack -e 40 -c 3 -i 7 -a 3 -x {7.0 2.0 0 ------- null}
- -t 0.6224472170149 -s 7 -d 4 -p ack -e 40 -c 3 -i 7 -a 3 -x {7.0 2.0 0 ------- null}
h -t 0.6224472170149 -s 7 -d 4 -p ack -e 40 -c 3 -i 7 -a 3 -x {7.0 2.0 -1 ------- null}
r -t 0.64968 -s 6 -d 4 -p ack -e 40 -c 2 -i 4 -a 2 -x {6.0 1.0 0 ------- null}
+ -t 0.64968 -s 4 -d 3 -p ack -e 40 -c 2 -i 4 -a 2 -x {6.0 1.0 0 ------- null}
- -t 0.64968 -s 4 -d 3 -p ack -e 40 -c 2 -i 4 -a 2 -x {6.0 1.0 0 ------- null}
h -t 0.64968 -s 4 -d 3 -p ack -e 40 -c 2 -i 4 -a 2 -x {6.0 1.0 -1 ------- null}
r -t 0.64976 -s 9 -d 4 -p ack -e 40 -c 4 -i 5 -a 4 -x {9.0 8.0 0 ------- null}
+ -t 0.64976 -s 4 -d 3 -p ack -e 40 -c 4 -i 5 -a 4 -x {9.0 8.0 0 ------- null}
- -t 0.64976 -s 4 -d 3 -p ack -e 40 -c 4 -i 5 -a 4 -x {9.0 8.0 0 ------- null}
h -t 0.64976 -s 4 -d 3 -p ack -e 40 -c 4 -i 5 -a 4 -x {9.0 8.0 -1 ------- null}
r -t 0.6996832 -s 4 -d 3 -p ack -e 40 -c 2 -i 4 -a 2 -x {6.0 1.0 0 ------- null}
+ -t 0.6996832 -s 3 -d 1 -p ack -e 40 -c 2 -i 4 -a 2 -x {6.0 1.0 0 ------- null}
- -t 0.6996832 -s 3 -d 1 -p ack -e 40 -c 2 -i 4 -a 2 -x {6.0 1.0 0 ------- null}
h -t 0.6996832 -s 3 -d 1 -p ack -e 40 -c 2 -i 4 -a 2 -x {6.0 1.0 -1 ------- null}
r -t 0.6997632 -s 4 -d 3 -p ack -e 40 -c 4 -i 5 -a 4 -x {9.0 8.0 0 ------- null}
+ -t 0.6997632 -s 3 -d 8 -p ack -e 40 -c 4 -i 5 -a 4 -x {9.0 8.0 0 ------- null}
- -t 0.6997632 -s 3 -d 8 -p ack -e 40 -c 4 -i 5 -a 4 -x {9.0 8.0 0 ------- null}
h -t 0.6997632 -s 3 -d 8 -p ack -e 40 -c 4 -i 5 -a 4 -x {9.0 8.0 -1 ------- null}
r -t 0.7500032 -s 3 -d 1 -p ack -e 40 -c 2 -i 4 -a 2 -x {6.0 1.0 0 ------- null}
+ -t 0.7500032 -s 1 -d 3 -p tcp -e 1000 -c 2 -i 8 -a 2 -x {1.0 6.0 1 ------- null}
- -t 0.7500032 -s 1 -d 3 -p tcp -e 1000 -c 2 -i 8 -a 2 -x {1.0 6.0 1 ------- null}
h -t 0.7500032 -s 1 -d 3 -p tcp -e 1000 -c 2 -i 8 -a 2 -x {1.0 6.0 -1 ------- null}
r -t 0.7500832 -s 3 -d 8 -p ack -e 40 -c 4 -i 5 -a 4 -x {9.0 8.0 0 ------- null}
+ -t 0.7500832 -s 8 -d 3 -p tcp -e 1000 -c 4 -i 9 -a 4 -x {8.0 9.0 1 ------- null}
- -t 0.7500832 -s 8 -d 3 -p tcp -e 1000 -c 4 -i 9 -a 4 -x {8.0 9.0 1 ------- null}
h -t 0.7500832 -s 8 -d 3 -p tcp -e 1000 -c 4 -i 9 -a 4 -x {8.0 9.0 -1 ------- null}
r -t 0.799182013838808 -s 5 -d 4 -p ack -e 40 -c 1 -i 6 -a 1 -x {5.0 0.0 0 ------- null}
+ -t 0.799182013838808 -s 4 -d 3 -p ack -e 40 -c 1 -i 6 -a 1 -x {5.0 0.0 0 ------- null}
- -t 0.799182013838808 -s 4 -d 3 -p ack -e 40 -c 1 -i 6 -a 1 -x {5.0 0.0 0 ------- null}
h -t 0.799182013838808 -s 4 -d 3 -p ack -e 40 -c 1 -i 6 -a 1 -x {5.0 0.0 -1 ------- null}
r -t 0.8080032 -s 1 -d 3 -p tcp -e 1000 -c 2 -i 8 -a 2 -x {1.0 6.0 1 ------- null}
+ -t 0.8080032 -s 3 -d 4 -p tcp -e 1000 -c 2 -i 8 -a 2 -x {1.0 6.0 1 ------- null}
- -t 0.8080032 -s 3 -d 4 -p tcp -e 1000 -c 2 -i 8 -a 2 -x {1.0 6.0 1 ------- null}
h -t 0.8080032 -s 3 -d 4 -p tcp -e 1000 -c 2 -i 8 -a 2 -x {1.0 6.0 -1 ------- null}
r -t 0.8080832 -s 8 -d 3 -p tcp -e 1000 -c 4 -i 9 -a 4 -x {8.0 9.0 1 ------- null}
+ -t 0.8080832 -s 3 -d 4 -p tcp -e 1000 -c 4 -i 9 -a 4 -x {8.0 9.0 1 ------- null}
- -t 0.8080832 -s 3 -d 4 -p tcp -e 1000 -c 4 -i 9 -a 4 -x {8.0 9.0 1 ------- null}
h -t 0.8080832 -s 3 -d 4 -p tcp -e 1000 -c 4 -i 9 -a 4 -x {8.0 9.0 -1 ------- null}
r -t 0.8240472170149 -s 7 -d 4 -p ack -e 40 -c 3 -i 7 -a 3 -x {7.0 2.0 0 ------- null}
+ -t 0.8240472170149 -s 4 -d 3 -p ack -e 40 -c 3 -i 7 -a 3 -x {7.0 2.0 0 ------- null}
- -t 0.8240472170149 -s 4 -d 3 -p ack -e 40 -c 3 -i 7 -a 3 -x {7.0 2.0 0 ------- null}
h -t 0.8240472170149 -s 4 -d 3 -p ack -e 40 -c 3 -i 7 -a 3 -x {7.0 2.0 -1 ------- null}
r -t 0.849185213838808 -s 4 -d 3 -p ack -e 40 -c 1 -i 6 -a 1 -x {5.0 0.0 0 ------- null}
+ -t 0.849185213838808 -s 3 -d 0 -p ack -e 40 -c 1 -i 6 -a 1 -x {5.0 0.0 0 ------- null}
- -t 0.849185213838808 -s 3 -d 0 -p ack -e 40 -c 1 -i 6 -a 1 -x {5.0 0.0 0 ------- null}
h -t 0.849185213838808 -s 3 -d 0 -p ack -e 40 -c 1 -i 6 -a 1 -x {5.0 0.0 -1 ------- null}
r -t 0.8580832 -s 3 -d 4 -p tcp -e 1000 -c 2 -i 8 -a 2 -x {1.0 6.0 1 ------- null}
+ -t 0.8580832 -s 4 -d 6 -p tcp -e 1000 -c 2 -i 8 -a 2 -x {1.0 6.0 1 ------- null}
- -t 0.8580832 -s 4 -d 6 -p tcp -e 1000 -c 2 -i 8 -a 2 -x {1.0 6.0 1 ------- null}
h -t 0.8580832 -s 4 -d 6 -p tcp -e 1000 -c 2 -i 8 -a 2 -x {1.0 6.0 -1 ------- null}
r -t 0.8581632 -s 3 -d 4 -p tcp -e 1000 -c 4 -i 9 -a 4 -x {8.0 9.0 1 ------- null}
+ -t 0.8581632 -s 4 -d 9 -p tcp -e 1000 -c 4 -i 9 -a 4 -x {8.0 9.0 1 ------- null}
- -t 0.8581632 -s 4 -d 9 -p tcp -e 1000 -c 4 -i 9 -a 4 -x {8.0 9.0 1 ------- null}
h -t 0.8581632 -s 4 -d 9 -p tcp -e 1000 -c 4 -i 9 -a 4 -x {8.0 9.0 -1 ------- null}
r -t 0.8740504170149 -s 4 -d 3 -p ack -e 40 -c 3 -i 7 -a 3 -x {7.0 2.0 0 ------- null}
+ -t 0.8740504170149 -s 3 -d 2 -p ack -e 40 -c 3 -i 7 -a 3 -x {7.0 2.0 0 ------- null}
- -t 0.8740504170149 -s 3 -d 2 -p ack -e 40 -c 3 -i 7 -a 3 -x {7.0 2.0 0 ------- null}
h -t 0.8740504170149 -s 3 -d 2 -p ack -e 40 -c 3 -i 7 -a 3 -x {7.0 2.0 -1 ------- null}
r -t 0.899505213838808 -s 3 -d 0 -p ack -e 40 -c 1 -i 6 -a 1 -x {5.0 0.0 0 ------- null}
+ -t 0.899505213838808 -s 0 -d 3 -p exp -e 1500 -c 1 -i 10 -a 1 -x {0.0 5.0 0 ------- null}
- -t 0.899505213838808 -s 0 -d 3 -p exp -e 1500 -c 1 -i 10 -a 1 -x {0.0 5.0 0 ------- null}
h -t 0.899505213838808 -s 0 -d 3 -p exp -e 1500 -c 1 -i 10 -a 1 -x {0.0 5.0 -1 ------- null}
r -t 0.9243704170149 -s 3 -d 2 -p ack -e 40 -c 3 -i 7 -a 3 -x {7.0 2.0 0 ------- null}
+ -t 0.9243704170149 -s 2 -d 3 -p exp -e 1000 -c 3 -i 11 -a 3 -x {2.0 7.0 0 ------- null}
- -t 0.9243704170149 -s 2 -d 3 -p exp -e 1000 -c 3 -i 11 -a 3 -x {2.0 7.0 0 ------- null}
h -t 0.9243704170149 -s 2 -d 3 -p exp -e 1000 -c 3 -i 11 -a 3 -x {2.0 7.0 -1 ------- null}
r -t 0.961505213838808 -s 0 -d 3 -p exp -e 1500 -c 1 -i 10 -a 1 -x {0.0 5.0 0 ------- null}
+ -t 0.961505213838808 -s 3 -d 4 -p exp -e 1500 -c 1 -i 10 -a 1 -x {0.0 5.0 0 ------- null}
- -t 0.961505213838808 -s 3 -d 4 -p exp -e 1500 -c 1 -i 10 -a 1 -x {0.0 5.0 0 ------- null}
h -t 0.961505213838808 -s 3 -d 4 -p exp -e 1500 -c 1 -i 10 -a 1 -x {0.0 5.0 -1 ------- null}
r -t 0.9823704170149 -s 2 -d 3 -p exp -e 1000 -c 3 -i 11 -a 3 -x {2.0 7.0 0 ------- null}
+ -t 0.9823704170149 -s 3 -d 4 -p exp -e 1000 -c 3 -i 11 -a 3 -x {2.0 7.0 0 ------- null}
- -t 0.9823704170149 -s 3 -d 4 -p exp -e 1000 -c 3 -i 11 -a 3 -x {2.0 7.0 0 ------- null}
h -t 0.9823704170149 -s 3 -d 4 -p exp -e 1000 -c 3 -i 11 -a 3 -x {2.0 7.0 -1 ------- null}
r -t 1.01162521383881 -s 3 -d 4 -p exp -e 1500 -c 1 -i 10 -a 1 -x {0.0 5.0 0 ------- null}
+ -t 1.01162521383881 -s 4 -d 5 -p exp -e 1500 -c 1 -i 10 -a 1 -x {0.0 5.0 0 ------- null}
- -t 1.01162521383881 -s 4 -d 5 -p exp -e 1500 -c 1 -i 10 -a 1 -x {0.0 5.0 0 ------- null}
h -t 1.01162521383881 -s 4 -d 5 -p exp -e 1500 -c 1 -i 10 -a 1 -x {0.0 5.0 -1 ------- null}
r -t 1.0324504170149 -s 3 -d 4 -p exp -e 1000 -c 3 -i 11 -a 3 -x {2.0 7.0 0 ------- null}
+ -t 1.0324504170149 -s 4 -d 7 -p exp -e 1000 -c 3 -i 11 -a 3 -x {2.0 7.0 0 ------- null}
- -t 1.0324504170149 -s 4 -d 7 -p exp -e 1000 -c 3 -i 11 -a 3 -x {2.0 7.0 0 ------- null}
h -t 1.0324504170149 -s 4 -d 7 -p exp -e 1000 -c 3 -i 11 -a 3 -x {2.0 7.0 -1 ------- null}
r -t 1.0980832 -s 4 -d 6 -p tcp -e 1000 -c 2 -i 8 -a 2 -x {1.0 6.0 1 ------- null}
+ -t 1.0980832 -s 6 -d 4 -p ack -e 40 -c 2 -i 12 -a 2 -x {6.0 1.0 1 ------- null}
- -t 1.0980832 -s 6 -d 4 -p ack -e 40 -c 2 -i 12 -a 2 -x {6.0 1.0 1 ------- null}
h -t 1.0980832 -s 6 -d 4 -p ack -e 40 -c 2 -i 12 -a 2 -x {6.0 1.0 -1 ------- null}
r -t 1.0981632 -s 4 -d 9 -p tcp -e 1000 -c 4 -i 9 -a 4 -x {8.0 9.0 1 ------- null}
+ -t 1.0981632 -s 9 -d 4 -p ack -e 40 -c 4 -i 13 -a 4 -x {9.0 8.0 1 ------- null}
- -t 1.0981632 -s 9 -d 4 -p ack -e 40 -c 4 -i 13 -a 4 -x {9.0 8.0 1 ------- null}
h -t 1.0981632 -s 9 -d 4 -p ack -e 40 -c 4 -i 13 -a 4 -x {9.0 8.0 -1 ------- null}
r -t 1.27162521383881 -s 4 -d 5 -p exp -e 1500 -c 1 -i 10 -a 1 -x {0.0 5.0 0 ------- null}
+ -t 1.27162521383881 -s 5 -d 4 -p ack -e 40 -c 1 -i 14 -a 1 -x {5.0 0.0 1 ------- null}
- -t 1.27162521383881 -s 5 -d 4 -p ack -e 40 -c 1 -i 14 -a 1 -x {5.0 0.0 1 ------- null}
h -t 1.27162521383881 -s 5 -d 4 -p ack -e 40 -c 1 -i 14 -a 1 -x {5.0 0.0 -1 ------- null}
r -t 1.2724504170149 -s 4 -d 7 -p exp -e 1000 -c 3 -i 11 -a 3 -x {2.0 7.0 0 ------- null}
+ -t 1.2724504170149 -s 7 -d 4 -p ack -e 40 -c 3 -i 15 -a 3 -x {7.0 2.0 1 ------- null}
- -t 1.2724504170149 -s 7 -d 4 -p ack -e 40 -c 3 -i 15 -a 3 -x {7.0 2.0 1 ------- null}
h -t 1.2724504170149 -s 7 -d 4 -p ack -e 40 -c 3 -i 15 -a 3 -x {7.0 2.0 -1 ------- null}
r -t 1.2996832 -s 6 -d 4 -p ack -e 40 -c 2 -i 12 -a 2 -x {6.0 1.0 1 ------- null}
+ -t 1.2996832 -s 4 -d 3 -p ack -e 40 -c 2 -i 12 -a 2 -x {6.0 1.0 1 ------- null}
- -t 1.2996832 -s 4 -d 3 -p ack -e 40 -c 2 -i 12 -a 2 -x {6.0 1.0 1 ------- null}
h -t 1.2996832 -s 4 -d 3 -p ack -e 40 -c 2 -i 12 -a 2 -x {6.0 1.0 -1 ------- null}
r -t 1.2997632 -s 9 -d 4 -p ack -e 40 -c 4 -i 13 -a 4 -x {9.0 8.0 1 ------- null}
+ -t 1.2997632 -s 4 -d 3 -p ack -e 40 -c 4 -i 13 -a 4 -x {9.0 8.0 1 ------- null}
- -t 1.2997632 -s 4 -d 3 -p ack -e 40 -c 4 -i 13 -a 4 -x {9.0 8.0 1 ------- null}
h -t 1.2997632 -s 4 -d 3 -p ack -e 40 -c 4 -i 13 -a 4 -x {9.0 8.0 -1 ------- null}
r -t 1.3496864 -s 4 -d 3 -p ack -e 40 -c 2 -i 12 -a 2 -x {6.0 1.0 1 ------- null}
+ -t 1.3496864 -s 3 -d 1 -p ack -e 40 -c 2 -i 12 -a 2 -x {6.0 1.0 1 ------- null}
- -t 1.3496864 -s 3 -d 1 -p ack -e 40 -c 2 -i 12 -a 2 -x {6.0 1.0 1 ------- null}
h -t 1.3496864 -s 3 -d 1 -p ack -e 40 -c 2 -i 12 -a 2 -x {6.0 1.0 -1 ------- null}
r -t 1.3497664 -s 4 -d 3 -p ack -e 40 -c 4 -i 13 -a 4 -x {9.0 8.0 1 ------- null}
+ -t 1.3497664 -s 3 -d 8 -p ack -e 40 -c 4 -i 13 -a 4 -x {9.0 8.0 1 ------- null}
- -t 1.3497664 -s 3 -d 8 -p ack -e 40 -c 4 -i 13 -a 4 -x {9.0 8.0 1 ------- null}
h -t 1.3497664 -s 3 -d 8 -p ack -e 40 -c 4 -i 13 -a 4 -x {9.0 8.0 -1 ------- null}
r -t 1.4000064 -s 3 -d 1 -p ack -e 40 -c 2 -i 12 -a 2 -x {6.0 1.0 1 ------- null}
+ -t 1.4000064 -s 1 -d 3 -p tcp -e 1000 -c 2 -i 16 -a 2 -x {1.0 6.0 2 ------- null}
- -t 1.4000064 -s 1 -d 3 -p tcp -e 1000 -c 2 -i 16 -a 2 -x {1.0 6.0 2 ------- null}
h -t 1.4000064 -s 1 -d 3 -p tcp -e 1000 -c 2 -i 16 -a 2 -x {1.0 6.0 -1 ------- null}
+ -t 1.4000064 -s 1 -d 3 -p tcp -e 1000 -c 2 -i 17 -a 2 -x {1.0 6.0 3 ------- null}
+ -t 1.4000064 -s 1 -d 3 -p tcp -e 1000 -c 2 -i 18 -a 2 -x {1.0 6.0 4 ------- null}
r -t 1.4000864 -s 3 -d 8 -p ack -e 40 -c 4 -i 13 -a 4 -x {9.0 8.0 1 ------- null}
+ -t 1.4000864 -s 8 -d 3 -p tcp -e 1000 -c 4 -i 19 -a 4 -x {8.0 9.0 2 ------- null}
- -t 1.4000864 -s 8 -d 3 -p tcp -e 1000 -c 4 -i 19 -a 4 -x {8.0 9.0 2 ------- null}
h -t 1.4000864 -s 8 -d 3 -p tcp -e 1000 -c 4 -i 19 -a 4 -x {8.0 9.0 -1 ------- null}
+ -t 1.4000864 -s 8 -d 3 -p tcp -e 1000 -c 4 -i 20 -a 4 -x {8.0 9.0 3 ------- null}
+ -t 1.4000864 -s 8 -d 3 -p tcp -e 1000 -c 4 -i 21 -a 4 -x {8.0 9.0 4 ------- null}
- -t 1.4080064 -s 1 -d 3 -p tcp -e 1000 -c 2 -i 17 -a 2 -x {1.0 6.0 3 ------- null}
h -t 1.4080064 -s 1 -d 3 -p tcp -e 1000 -c 2 -i 17 -a 2 -x {1.0 6.0 -1 ------- null}
- -t 1.4080864 -s 8 -d 3 -p tcp -e 1000 -c 4 -i 20 -a 4 -x {8.0 9.0 3 ------- null}
h -t 1.4080864 -s 8 -d 3 -p tcp -e 1000 -c 4 -i 20 -a 4 -x {8.0 9.0 -1 ------- null}
- -t 1.4160064 -s 1 -d 3 -p tcp -e 1000 -c 2 -i 18 -a 2 -x {1.0 6.0 4 ------- null}
h -t 1.4160064 -s 1 -d 3 -p tcp -e 1000 -c 2 -i 18 -a 2 -x {1.0 6.0 -1 ------- null}
- -t 1.4160864 -s 8 -d 3 -p tcp -e 1000 -c 4 -i 21 -a 4 -x {8.0 9.0 4 ------- null}
h -t 1.4160864 -s 8 -d 3 -p tcp -e 1000 -c 4 -i 21 -a 4 -x {8.0 9.0 -1 ------- null}
r -t 1.4580064 -s 1 -d 3 -p tcp -e 1000 -c 2 -i 16 -a 2 -x {1.0 6.0 2 ------- null}
+ -t 1.4580064 -s 3 -d 4 -p tcp -e 1000 -c 2 -i 16 -a 2 -x {1.0 6.0 2 ------- null}
- -t 1.4580064 -s 3 -d 4 -p tcp -e 1000 -c 2 -i 16 -a 2 -x {1.0 6.0 2 ------- null}
h -t 1.4580064 -s 3 -d 4 -p tcp -e 1000 -c 2 -i 16 -a 2 -x {1.0 6.0 -1 ------- null}
r -t 1.4580864 -s 8 -d 3 -p tcp -e 1000 -c 4 -i 19 -a 4 -x {8.0 9.0 2 ------- null}
+ -t 1.4580864 -s 3 -d 4 -p tcp -e 1000 -c 4 -i 19 -a 4 -x {8.0 9.0 2 ------- null}
- -t 1.4580864 -s 3 -d 4 -p tcp -e 1000 -c 4 -i 19 -a 4 -x {8.0 9.0 2 ------- null}
h -t 1.4580864 -s 3 -d 4 -p tcp -e 1000 -c 4 -i 19 -a 4 -x {8.0 9.0 -1 ------- null}
r -t 1.4660064 -s 1 -d 3 -p tcp -e 1000 -c 2 -i 17 -a 2 -x {1.0 6.0 3 ------- null}
+ -t 1.4660064 -s 3 -d 4 -p tcp -e 1000 -c 2 -i 17 -a 2 -x {1.0 6.0 3 ------- null}
- -t 1.4660064 -s 3 -d 4 -p tcp -e 1000 -c 2 -i 17 -a 2 -x {1.0 6.0 3 ------- null}
h -t 1.4660064 -s 3 -d 4 -p tcp -e 1000 -c 2 -i 17 -a 2 -x {1.0 6.0 -1 ------- null}
r -t 1.4660864 -s 8 -d 3 -p tcp -e 1000 -c 4 -i 20 -a 4 -x {8.0 9.0 3 ------- null}
+ -t 1.4660864 -s 3 -d 4 -p tcp -e 1000 -c 4 -i 20 -a 4 -x {8.0 9.0 3 ------- null}
- -t 1.4660864 -s 3 -d 4 -p tcp -e 1000 -c 4 -i 20 -a 4 -x {8.0 9.0 3 ------- null}
h -t 1.4660864 -s 3 -d 4 -p tcp -e 1000 -c 4 -i 20 -a 4 -x {8.0 9.0 -1 ------- null}
r -t 1.47322521383881 -s 5 -d 4 -p ack -e 40 -c 1 -i 14 -a 1 -x {5.0 0.0 1 ------- null}
+ -t 1.47322521383881 -s 4 -d 3 -p ack -e 40 -c 1 -i 14 -a 1 -x {5.0 0.0 1 ------- null}
- -t 1.47322521383881 -s 4 -d 3 -p ack -e 40 -c 1 -i 14 -a 1 -x {5.0 0.0 1 ------- null}
h -t 1.47322521383881 -s 4 -d 3 -p ack -e 40 -c 1 -i 14 -a 1 -x {5.0 0.0 -1 ------- null}
r -t 1.4740064 -s 1 -d 3 -p tcp -e 1000 -c 2 -i 18 -a 2 -x {1.0 6.0 4 ------- null}
+ -t 1.4740064 -s 3 -d 4 -p tcp -e 1000 -c 2 -i 18 -a 2 -x {1.0 6.0 4 ------- null}
- -t 1.4740064 -s 3 -d 4 -p tcp -e 1000 -c 2 -i 18 -a 2 -x {1.0 6.0 4 ------- null}
h -t 1.4740064 -s 3 -d 4 -p tcp -e 1000 -c 2 -i 18 -a 2 -x {1.0 6.0 -1 ------- null}
r -t 1.4740504170149 -s 7 -d 4 -p ack -e 40 -c 3 -i 15 -a 3 -x {7.0 2.0 1 ------- null}
+ -t 1.4740504170149 -s 4 -d 3 -p ack -e 40 -c 3 -i 15 -a 3 -x {7.0 2.0 1 ------- null}
- -t 1.4740504170149 -s 4 -d 3 -p ack -e 40 -c 3 -i 15 -a 3 -x {7.0 2.0 1 ------- null}
h -t 1.4740504170149 -s 4 -d 3 -p ack -e 40 -c 3 -i 15 -a 3 -x {7.0 2.0 -1 ------- null}
r -t 1.4740864 -s 8 -d 3 -p tcp -e 1000 -c 4 -i 21 -a 4 -x {8.0 9.0 4 ------- null}
+ -t 1.4740864 -s 3 -d 4 -p tcp -e 1000 -c 4 -i 21 -a 4 -x {8.0 9.0 4 ------- null}
- -t 1.4740864 -s 3 -d 4 -p tcp -e 1000 -c 4 -i 21 -a 4 -x {8.0 9.0 4 ------- null}
h -t 1.4740864 -s 3 -d 4 -p tcp -e 1000 -c 4 -i 21 -a 4 -x {8.0 9.0 -1 ------- null}
r -t 1.5080864 -s 3 -d 4 -p tcp -e 1000 -c 2 -i 16 -a 2 -x {1.0 6.0 2 ------- null}
+ -t 1.5080864 -s 4 -d 6 -p tcp -e 1000 -c 2 -i 16 -a 2 -x {1.0 6.0 2 ------- null}
- -t 1.5080864 -s 4 -d 6 -p tcp -e 1000 -c 2 -i 16 -a 2 -x {1.0 6.0 2 ------- null}
h -t 1.5080864 -s 4 -d 6 -p tcp -e 1000 -c 2 -i 16 -a 2 -x {1.0 6.0 -1 ------- null}
r -t 1.5081664 -s 3 -d 4 -p tcp -e 1000 -c 4 -i 19 -a 4 -x {8.0 9.0 2 ------- null}
+ -t 1.5081664 -s 4 -d 9 -p tcp -e 1000 -c 4 -i 19 -a 4 -x {8.0 9.0 2 ------- null}
- -t 1.5081664 -s 4 -d 9 -p tcp -e 1000 -c 4 -i 19 -a 4 -x {8.0 9.0 2 ------- null}
h -t 1.5081664 -s 4 -d 9 -p tcp -e 1000 -c 4 -i 19 -a 4 -x {8.0 9.0 -1 ------- null}
r -t 1.5160864 -s 3 -d 4 -p tcp -e 1000 -c 2 -i 17 -a 2 -x {1.0 6.0 3 ------- null}
+ -t 1.5160864 -s 4 -d 6 -p tcp -e 1000 -c 2 -i 17 -a 2 -x {1.0 6.0 3 ------- null}
r -t 1.5161664 -s 3 -d 4 -p tcp -e 1000 -c 4 -i 20 -a 4 -x {8.0 9.0 3 ------- null}
+ -t 1.5161664 -s 4 -d 9 -p tcp -e 1000 -c 4 -i 20 -a 4 -x {8.0 9.0 3 ------- null}
r -t 1.52322841383881 -s 4 -d 3 -p ack -e 40 -c 1 -i 14 -a 1 -x {5.0 0.0 1 ------- null}
+ -t 1.52322841383881 -s 3 -d 0 -p ack -e 40 -c 1 -i 14 -a 1 -x {5.0 0.0 1 ------- null}
- -t 1.52322841383881 -s 3 -d 0 -p ack -e 40 -c 1 -i 14 -a 1 -x {5.0 0.0 1 ------- null}
h -t 1.52322841383881 -s 3 -d 0 -p ack -e 40 -c 1 -i 14 -a 1 -x {5.0 0.0 -1 ------- null}
r -t 1.5240536170149 -s 4 -d 3 -p ack -e 40 -c 3 -i 15 -a 3 -x {7.0 2.0 1 ------- null}
+ -t 1.5240536170149 -s 3 -d 2 -p ack -e 40 -c 3 -i 15 -a 3 -x {7.0 2.0 1 ------- null}
- -t 1.5240536170149 -s 3 -d 2 -p ack -e 40 -c 3 -i 15 -a 3 -x {7.0 2.0 1 ------- null}
h -t 1.5240536170149 -s 3 -d 2 -p ack -e 40 -c 3 -i 15 -a 3 -x {7.0 2.0 -1 ------- null}
r -t 1.5240864 -s 3 -d 4 -p tcp -e 1000 -c 2 -i 18 -a 2 -x {1.0 6.0 4 ------- null}
+ -t 1.5240864 -s 4 -d 6 -p tcp -e 1000 -c 2 -i 18 -a 2 -x {1.0 6.0 4 ------- null}
r -t 1.5241664 -s 3 -d 4 -p tcp -e 1000 -c 4 -i 21 -a 4 -x {8.0 9.0 4 ------- null}
+ -t 1.5241664 -s 4 -d 9 -p tcp -e 1000 -c 4 -i 21 -a 4 -x {8.0 9.0 4 ------- null}
- -t 1.5480864 -s 4 -d 6 -p tcp -e 1000 -c 2 -i 17 -a 2 -x {1.0 6.0 3 ------- null}
h -t 1.5480864 -s 4 -d 6 -p tcp -e 1000 -c 2 -i 17 -a 2 -x {1.0 6.0 -1 ------- null}
- -t 1.5481664 -s 4 -d 9 -p tcp -e 1000 -c 4 -i 20 -a 4 -x {8.0 9.0 3 ------- null}
h -t 1.5481664 -s 4 -d 9 -p tcp -e 1000 -c 4 -i 20 -a 4 -x {8.0 9.0 -1 ------- null}
r -t 1.57354841383881 -s 3 -d 0 -p ack -e 40 -c 1 -i 14 -a 1 -x {5.0 0.0 1 ------- null}
+ -t 1.57354841383881 -s 0 -d 3 -p exp -e 1500 -c 1 -i 22 -a 1 -x {0.0 5.0 0 ------- null}
- -t 1.57354841383881 -s 0 -d 3 -p exp -e 1500 -c 1 -i 22 -a 1 -x {0.0 5.0 0 ------- null}
h -t 1.57354841383881 -s 0 -d 3 -p exp -e 1500 -c 1 -i 22 -a 1 -x {0.0 5.0 -1 ------- null}
+ -t 1.57354841383881 -s 0 -d 3 -p exp -e 1500 -c 1 -i 23 -a 1 -x {0.0 5.0 0 ------- null}
+ -t 1.57354841383881 -s 0 -d 3 -p exp -e 1500 -c 1 -i 24 -a 1 -x {0.0 5.0 0 ------- null}
r -t 1.5743736170149 -s 3 -d 2 -p ack -e 40 -c 3 -i 15 -a 3 -x {7.0 2.0 1 ------- null}
+ -t 1.5743736170149 -s 2 -d 3 -p exp -e 1000 -c 3 -i 25 -a 3 -x {2.0 7.0 0 ------- null}
- -t 1.5743736170149 -s 2 -d 3 -p exp -e 1000 -c 3 -i 25 -a 3 -x {2.0 7.0 0 ------- null}
h -t 1.5743736170149 -s 2 -d 3 -p exp -e 1000 -c 3 -i 25 -a 3 -x {2.0 7.0 -1 ------- null}
+ -t 1.5743736170149 -s 2 -d 3 -p exp -e 1000 -c 3 -i 26 -a 3 -x {2.0 7.0 0 ------- null}
+ -t 1.5743736170149 -s 2 -d 3 -p exp -e 1000 -c 3 -i 27 -a 3 -x {2.0 7.0 0 ------- null}
- -t 1.5823736170149 -s 2 -d 3 -p exp -e 1000 -c 3 -i 26 -a 3 -x {2.0 7.0 0 ------- null}
h -t 1.5823736170149 -s 2 -d 3 -p exp -e 1000 -c 3 -i 26 -a 3 -x {2.0 7.0 -1 ------- null}
- -t 1.58554841383881 -s 0 -d 3 -p exp -e 1500 -c 1 -i 23 -a 1 -x {0.0 5.0 0 ------- null}
h -t 1.58554841383881 -s 0 -d 3 -p exp -e 1500 -c 1 -i 23 -a 1 -x {0.0 5.0 -1 ------- null}
- -t 1.5880864 -s 4 -d 6 -p tcp -e 1000 -c 2 -i 18 -a 2 -x {1.0 6.0 4 ------- null}
h -t 1.5880864 -s 4 -d 6 -p tcp -e 1000 -c 2 -i 18 -a 2 -x {1.0 6.0 -1 ------- null}
- -t 1.5881664 -s 4 -d 9 -p tcp -e 1000 -c 4 -i 21 -a 4 -x {8.0 9.0 4 ------- null}
h -t 1.5881664 -s 4 -d 9 -p tcp -e 1000 -c 4 -i 21 -a 4 -x {8.0 9.0 -1 ------- null}
- -t 1.5903736170149 -s 2 -d 3 -p exp -e 1000 -c 3 -i 27 -a 3 -x {2.0 7.0 0 ------- null}
h -t 1.5903736170149 -s 2 -d 3 -p exp -e 1000 -c 3 -i 27 -a 3 -x {2.0 7.0 -1 ------- null}
- -t 1.59754841383881 -s 0 -d 3 -p exp -e 1500 -c 1 -i 24 -a 1 -x {0.0 5.0 0 ------- null}
h -t 1.59754841383881 -s 0 -d 3 -p exp -e 1500 -c 1 -i 24 -a 1 -x {0.0 5.0 -1 ------- null}
r -t 1.6323736170149 -s 2 -d 3 -p exp -e 1000 -c 3 -i 25 -a 3 -x {2.0 7.0 0 ------- null}
+ -t 1.6323736170149 -s 3 -d 4 -p exp -e 1000 -c 3 -i 25 -a 3 -x {2.0 7.0 0 ------- null}
- -t 1.6323736170149 -s 3 -d 4 -p exp -e 1000 -c 3 -i 25 -a 3 -x {2.0 7.0 0 ------- null}
h -t 1.6323736170149 -s 3 -d 4 -p exp -e 1000 -c 3 -i 25 -a 3 -x {2.0 7.0 -1 ------- null}
r -t 1.63554841383881 -s 0 -d 3 -p exp -e 1500 -c 1 -i 22 -a 1 -x {0.0 5.0 0 ------- null}
+ -t 1.63554841383881 -s 3 -d 4 -p exp -e 1500 -c 1 -i 22 -a 1 -x {0.0 5.0 0 ------- null}
- -t 1.63554841383881 -s 3 -d 4 -p exp -e 1500 -c 1 -i 22 -a 1 -x {0.0 5.0 0 ------- null}
h -t 1.63554841383881 -s 3 -d 4 -p exp -e 1500 -c 1 -i 22 -a 1 -x {0.0 5.0 -1 ------- null}
r -t 1.6403736170149 -s 2 -d 3 -p exp -e 1000 -c 3 -i 26 -a 3 -x {2.0 7.0 0 ------- null}
+ -t 1.6403736170149 -s 3 -d 4 -p exp -e 1000 -c 3 -i 26 -a 3 -x {2.0 7.0 0 ------- null}
- -t 1.6403736170149 -s 3 -d 4 -p exp -e 1000 -c 3 -i 26 -a 3 -x {2.0 7.0 0 ------- null}
h -t 1.6403736170149 -s 3 -d 4 -p exp -e 1000 -c 3 -i 26 -a 3 -x {2.0 7.0 -1 ------- null}
r -t 1.64754841383881 -s 0 -d 3 -p exp -e 1500 -c 1 -i 23 -a 1 -x {0.0 5.0 0 ------- null}
+ -t 1.64754841383881 -s 3 -d 4 -p exp -e 1500 -c 1 -i 23 -a 1 -x {0.0 5.0 0 ------- null}
- -t 1.64754841383881 -s 3 -d 4 -p exp -e 1500 -c 1 -i 23 -a 1 -x {0.0 5.0 0 ------- null}
h -t 1.64754841383881 -s 3 -d 4 -p exp -e 1500 -c 1 -i 23 -a 1 -x {0.0 5.0 -1 ------- null}
r -t 1.6483736170149 -s 2 -d 3 -p exp -e 1000 -c 3 -i 27 -a 3 -x {2.0 7.0 0 ------- null}
+ -t 1.6483736170149 -s 3 -d 4 -p exp -e 1000 -c 3 -i 27 -a 3 -x {2.0 7.0 0 ------- null}
- -t 1.6483736170149 -s 3 -d 4 -p exp -e 1000 -c 3 -i 27 -a 3 -x {2.0 7.0 0 ------- null}
h -t 1.6483736170149 -s 3 -d 4 -p exp -e 1000 -c 3 -i 27 -a 3 -x {2.0 7.0 -1 ------- null}
r -t 1.65954841383881 -s 0 -d 3 -p exp -e 1500 -c 1 -i 24 -a 1 -x {0.0 5.0 0 ------- null}
+ -t 1.65954841383881 -s 3 -d 4 -p exp -e 1500 -c 1 -i 24 -a 1 -x {0.0 5.0 0 ------- null}
- -t 1.65954841383881 -s 3 -d 4 -p exp -e 1500 -c 1 -i 24 -a 1 -x {0.0 5.0 0 ------- null}
h -t 1.65954841383881 -s 3 -d 4 -p exp -e 1500 -c 1 -i 24 -a 1 -x {0.0 5.0 -1 ------- null}
r -t 1.6824536170149 -s 3 -d 4 -p exp -e 1000 -c 3 -i 25 -a 3 -x {2.0 7.0 0 ------- null}
+ -t 1.6824536170149 -s 4 -d 7 -p exp -e 1000 -c 3 -i 25 -a 3 -x {2.0 7.0 0 ------- null}
- -t 1.6824536170149 -s 4 -d 7 -p exp -e 1000 -c 3 -i 25 -a 3 -x {2.0 7.0 0 ------- null}
h -t 1.6824536170149 -s 4 -d 7 -p exp -e 1000 -c 3 -i 25 -a 3 -x {2.0 7.0 -1 ------- null}
r -t 1.68566841383881 -s 3 -d 4 -p exp -e 1500 -c 1 -i 22 -a 1 -x {0.0 5.0 0 ------- null}
+ -t 1.68566841383881 -s 4 -d 5 -p exp -e 1500 -c 1 -i 22 -a 1 -x {0.0 5.0 0 ------- null}
- -t 1.68566841383881 -s 4 -d 5 -p exp -e 1500 -c 1 -i 22 -a 1 -x {0.0 5.0 0 ------- null}
h -t 1.68566841383881 -s 4 -d 5 -p exp -e 1500 -c 1 -i 22 -a 1 -x {0.0 5.0 -1 ------- null}
r -t 1.6904536170149 -s 3 -d 4 -p exp -e 1000 -c 3 -i 26 -a 3 -x {2.0 7.0 0 ------- null}
+ -t 1.6904536170149 -s 4 -d 7 -p exp -e 1000 -c 3 -i 26 -a 3 -x {2.0 7.0 0 ------- null}
r -t 1.69766841383881 -s 3 -d 4 -p exp -e 1500 -c 1 -i 23 -a 1 -x {0.0 5.0 0 ------- null}
+ -t 1.69766841383881 -s 4 -d 5 -p exp -e 1500 -c 1 -i 23 -a 1 -x {0.0 5.0 0 ------- null}
r -t 1.6984536170149 -s 3 -d 4 -p exp -e 1000 -c 3 -i 27 -a 3 -x {2.0 7.0 0 ------- null}
+ -t 1.6984536170149 -s 4 -d 7 -p exp -e 1000 -c 3 -i 27 -a 3 -x {2.0 7.0 0 ------- null}
r -t 1.70966841383881 -s 3 -d 4 -p exp -e 1500 -c 1 -i 24 -a 1 -x {0.0 5.0 0 ------- null}
+ -t 1.70966841383881 -s 4 -d 5 -p exp -e 1500 -c 1 -i 24 -a 1 -x {0.0 5.0 0 ------- null}
- -t 1.7224536170149 -s 4 -d 7 -p exp -e 1000 -c 3 -i 26 -a 3 -x {2.0 7.0 0 ------- null}
h -t 1.7224536170149 -s 4 -d 7 -p exp -e 1000 -c 3 -i 26 -a 3 -x {2.0 7.0 -1 ------- null}
- -t 1.74566841383881 -s 4 -d 5 -p exp -e 1500 -c 1 -i 23 -a 1 -x {0.0 5.0 0 ------- null}
h -t 1.74566841383881 -s 4 -d 5 -p exp -e 1500 -c 1 -i 23 -a 1 -x {0.0 5.0 -1 ------- null}
r -t 1.7480864 -s 4 -d 6 -p tcp -e 1000 -c 2 -i 16 -a 2 -x {1.0 6.0 2 ------- null}
+ -t 1.7480864 -s 6 -d 4 -p ack -e 40 -c 2 -i 28 -a 2 -x {6.0 1.0 2 ------- null}
- -t 1.7480864 -s 6 -d 4 -p ack -e 40 -c 2 -i 28 -a 2 -x {6.0 1.0 2 ------- null}
h -t 1.7480864 -s 6 -d 4 -p ack -e 40 -c 2 -i 28 -a 2 -x {6.0 1.0 -1 ------- null}
r -t 1.7481664 -s 4 -d 9 -p tcp -e 1000 -c 4 -i 19 -a 4 -x {8.0 9.0 2 ------- null}
+ -t 1.7481664 -s 9 -d 4 -p ack -e 40 -c 4 -i 29 -a 4 -x {9.0 8.0 2 ------- null}
- -t 1.7481664 -s 9 -d 4 -p ack -e 40 -c 4 -i 29 -a 4 -x {9.0 8.0 2 ------- null}
h -t 1.7481664 -s 9 -d 4 -p ack -e 40 -c 4 -i 29 -a 4 -x {9.0 8.0 -1 ------- null}
- -t 1.7624536170149 -s 4 -d 7 -p exp -e 1000 -c 3 -i 27 -a 3 -x {2.0 7.0 0 ------- null}
h -t 1.7624536170149 -s 4 -d 7 -p exp -e 1000 -c 3 -i 27 -a 3 -x {2.0 7.0 -1 ------- null}
r -t 1.7880864 -s 4 -d 6 -p tcp -e 1000 -c 2 -i 17 -a 2 -x {1.0 6.0 3 ------- null}
+ -t 1.7880864 -s 6 -d 4 -p ack -e 40 -c 2 -i 30 -a 2 -x {6.0 1.0 3 ------- null}