V -t * -v 1.0a5 -a 0
A -t * -n 1 -p 0 -o 0x7fffffff -c 30 -a 1
A -t * -h 1 -m 1073741823 -s 0
c -t * -i 4 -n Yellow
c -t * -i 1 -n Green
c -t * -i 2 -n Blue
c -t * -i 3 -n Red
n -t * -a 8 -s 8 -S UP -v circle -c green -i green
n -t * -a 4 -s 4 -S UP -v circle -c black -i black
n -t * -a 0 -s 0 -S UP -v circle -c green -i green
n -t * -a 5 -s 5 -S UP -v circle -c yellow -i yellow
n -t * -a 1 -s 1 -S UP -v circle -c blue -i blue
n -t * -a 6 -s 6 -S UP -v circle -c red -i red
n -t * -a 2 -s 2 -S UP -v circle -c red -i red
n -t * -a 7 -s 7 -S UP -v circle -c blue -i blue
n -t * -a 3 -s 3 -S UP -v circle -c yellow -i yellow
l -t * -s 6 -d 4 -S UP -r 200000 -D 0.20000000000000001 -c black
l -t * -s 2 -d 4 -S UP -r 200000 -D 0.20000000000000001 -c black
l -t * -s 8 -d 4 -S UP -r 200000 -D 0.20000000000000001 -c black
l -t * -s 0 -d 1 -S UP -r 1000000 -D 0.050000000000000003 -c black -o right
l -t * -s 0 -d 4 -S UP -r 200000 -D 0.20000000000000001 -c black -o right-down
l -t * -s 1 -d 2 -S UP -r 1000000 -D 0.050000000000000003 -c black -o right
l -t * -s 2 -d 5 -S UP -r 5000000 -D 0.10000000000000001 -c black -o down
l -t * -s 5 -d 8 -S UP -r 5000000 -D 0.10000000000000001 -c black -o down
l -t * -s 8 -d 7 -S UP -r 1000000 -D 0.050000000000000003 -c black -o left
l -t * -s 7 -d 6 -S UP -r 1000000 -D 0.050000000000000003 -c black -o left
l -t * -s 6 -d 3 -S UP -r 5000000 -D 0.10000000000000001 -c black -o up
l -t * -s 3 -d 0 -S UP -r 5000000 -D 0.10000000000000001 -c black -o up
+ -t 0.1 -s 0 -d 4 -p tcp -e 1500 -c 1 -i 0 -a 1 -x {0.0 8.0 0 ------- null}
- -t 0.1 -s 0 -d 4 -p tcp -e 1500 -c 1 -i 0 -a 1 -x {0.0 8.0 0 ------- null}
h -t 0.1 -s 0 -d 4 -p tcp -e 1500 -c 1 -i 0 -a 1 -x {0.0 8.0 -1 ------- null}
+ -t 0.1 -s 3 -d 0 -p tcp -e 1000 -c 4 -i 1 -a 4 -x {3.0 5.0 0 ------- null}
- -t 0.1 -s 3 -d 0 -p tcp -e 1000 -c 4 -i 1 -a 4 -x {3.0 5.0 0 ------- null}
h -t 0.1 -s 3 -d 0 -p tcp -e 1000 -c 4 -i 1 -a 4 -x {3.0 5.0 -1 ------- null}
r -t 0.2016 -s 3 -d 0 -p tcp -e 1000 -c 4 -i 1 -a 4 -x {3.0 5.0 0 ------- null}
+ -t 0.2016 -s 0 -d 1 -p tcp -e 1000 -c 4 -i 1 -a 4 -x {3.0 5.0 0 ------- null}
- -t 0.2016 -s 0 -d 1 -p tcp -e 1000 -c 4 -i 1 -a 4 -x {3.0 5.0 0 ------- null}
h -t 0.2016 -s 0 -d 1 -p tcp -e 1000 -c 4 -i 1 -a 4 -x {3.0 5.0 -1 ------- null}
+ -t 0.225462013838808 -s 2 -d 4 -p exp -e 1000 -c 3 -i 2 -a 3 -x {2.0 6.0 0 ------- null}
- -t 0.225462013838808 -s 2 -d 4 -p exp -e 1000 -c 3 -i 2 -a 3 -x {2.0 6.0 0 ------- null}
h -t 0.225462013838808 -s 2 -d 4 -p exp -e 1000 -c 3 -i 2 -a 3 -x {2.0 6.0 -1 ------- null}
r -t 0.2596 -s 0 -d 1 -p tcp -e 1000 -c 4 -i 1 -a 4 -x {3.0 5.0 0 ------- null}
+ -t 0.2596 -s 1 -d 2 -p tcp -e 1000 -c 4 -i 1 -a 4 -x {3.0 5.0 0 ------- null}
- -t 0.2596 -s 1 -d 2 -p tcp -e 1000 -c 4 -i 1 -a 4 -x {3.0 5.0 0 ------- null}
h -t 0.2596 -s 1 -d 2 -p tcp -e 1000 -c 4 -i 1 -a 4 -x {3.0 5.0 -1 ------- null}
+ -t 0.2743672170149 -s 1 -d 0 -p exp -e 1000 -c 2 -i 3 -a 2 -x {1.0 7.0 0 ------- null}
- -t 0.2743672170149 -s 1 -d 0 -p exp -e 1000 -c 2 -i 3 -a 2 -x {1.0 7.0 0 ------- null}
h -t 0.2743672170149 -s 1 -d 0 -p exp -e 1000 -c 2 -i 3 -a 2 -x {1.0 7.0 -1 ------- null}
r -t 0.3176 -s 1 -d 2 -p tcp -e 1000 -c 4 -i 1 -a 4 -x {3.0 5.0 0 ------- null}
+ -t 0.3176 -s 2 -d 5 -p tcp -e 1000 -c 4 -i 1 -a 4 -x {3.0 5.0 0 ------- null}
- -t 0.3176 -s 2 -d 5 -p tcp -e 1000 -c 4 -i 1 -a 4 -x {3.0 5.0 0 ------- null}
h -t 0.3176 -s 2 -d 5 -p tcp -e 1000 -c 4 -i 1 -a 4 -x {3.0 5.0 -1 ------- null}
r -t 0.3323672170149 -s 1 -d 0 -p exp -e 1000 -c 2 -i 3 -a 2 -x {1.0 7.0 0 ------- null}
+ -t 0.3323672170149 -s 0 -d 3 -p exp -e 1000 -c 2 -i 3 -a 2 -x {1.0 7.0 0 ------- null}
- -t 0.3323672170149 -s 0 -d 3 -p exp -e 1000 -c 2 -i 3 -a 2 -x {1.0 7.0 0 ------- null}
h -t 0.3323672170149 -s 0 -d 3 -p exp -e 1000 -c 2 -i 3 -a 2 -x {1.0 7.0 -1 ------- null}
r -t 0.36 -s 0 -d 4 -p tcp -e 1500 -c 1 -i 0 -a 1 -x {0.0 8.0 0 ------- null}
+ -t 0.36 -s 4 -d 8 -p tcp -e 1500 -c 1 -i 0 -a 1 -x {0.0 8.0 0 ------- null}
- -t 0.36 -s 4 -d 8 -p tcp -e 1500 -c 1 -i 0 -a 1 -x {0.0 8.0 0 ------- null}
h -t 0.36 -s 4 -d 8 -p tcp -e 1500 -c 1 -i 0 -a 1 -x {0.0 8.0 -1 ------- null}
r -t 0.4192 -s 2 -d 5 -p tcp -e 1000 -c 4 -i 1 -a 4 -x {3.0 5.0 0 ------- null}
+ -t 0.4192 -s 5 -d 2 -p ack -e 40 -c 4 -i 4 -a 4 -x {5.0 3.0 0 ------- null}
- -t 0.4192 -s 5 -d 2 -p ack -e 40 -c 4 -i 4 -a 4 -x {5.0 3.0 0 ------- null}
h -t 0.4192 -s 5 -d 2 -p ack -e 40 -c 4 -i 4 -a 4 -x {5.0 3.0 -1 ------- null}
r -t 0.4339672170149 -s 0 -d 3 -p exp -e 1000 -c 2 -i 3 -a 2 -x {1.0 7.0 0 ------- null}
+ -t 0.4339672170149 -s 3 -d 6 -p exp -e 1000 -c 2 -i 3 -a 2 -x {1.0 7.0 0 ------- null}
- -t 0.4339672170149 -s 3 -d 6 -p exp -e 1000 -c 2 -i 3 -a 2 -x {1.0 7.0 0 ------- null}
h -t 0.4339672170149 -s 3 -d 6 -p exp -e 1000 -c 2 -i 3 -a 2 -x {1.0 7.0 -1 ------- null}
r -t 0.465462013838808 -s 2 -d 4 -p exp -e 1000 -c 3 -i 2 -a 3 -x {2.0 6.0 0 ------- null}
+ -t 0.465462013838808 -s 4 -d 6 -p exp -e 1000 -c 3 -i 2 -a 3 -x {2.0 6.0 0 ------- null}
- -t 0.465462013838808 -s 4 -d 6 -p exp -e 1000 -c 3 -i 2 -a 3 -x {2.0 6.0 0 ------- null}
h -t 0.465462013838808 -s 4 -d 6 -p exp -e 1000 -c 3 -i 2 -a 3 -x {2.0 6.0 -1 ------- null}
r -t 0.519264 -s 5 -d 2 -p ack -e 40 -c 4 -i 4 -a 4 -x {5.0 3.0 0 ------- null}
+ -t 0.519264 -s 2 -d 1 -p ack -e 40 -c 4 -i 4 -a 4 -x {5.0 3.0 0 ------- null}
- -t 0.519264 -s 2 -d 1 -p ack -e 40 -c 4 -i 4 -a 4 -x {5.0 3.0 0 ------- null}
h -t 0.519264 -s 2 -d 1 -p ack -e 40 -c 4 -i 4 -a 4 -x {5.0 3.0 -1 ------- null}
r -t 0.5355672170149 -s 3 -d 6 -p exp -e 1000 -c 2 -i 3 -a 2 -x {1.0 7.0 0 ------- null}
+ -t 0.5355672170149 -s 6 -d 7 -p exp -e 1000 -c 2 -i 3 -a 2 -x {1.0 7.0 0 ------- null}
- -t 0.5355672170149 -s 6 -d 7 -p exp -e 1000 -c 2 -i 3 -a 2 -x {1.0 7.0 0 ------- null}
h -t 0.5355672170149 -s 6 -d 7 -p exp -e 1000 -c 2 -i 3 -a 2 -x {1.0 7.0 -1 ------- null}
r -t 0.569584 -s 2 -d 1 -p ack -e 40 -c 4 -i 4 -a 4 -x {5.0 3.0 0 ------- null}
+ -t 0.569584 -s 1 -d 0 -p ack -e 40 -c 4 -i 4 -a 4 -x {5.0 3.0 0 ------- null}
- -t 0.569584 -s 1 -d 0 -p ack -e 40 -c 4 -i 4 -a 4 -x {5.0 3.0 0 ------- null}
h -t 0.569584 -s 1 -d 0 -p ack -e 40 -c 4 -i 4 -a 4 -x {5.0 3.0 -1 ------- null}
r -t 0.5935672170149 -s 6 -d 7 -p exp -e 1000 -c 2 -i 3 -a 2 -x {1.0 7.0 0 ------- null}
+ -t 0.5935672170149 -s 7 -d 6 -p ack -e 40 -c 2 -i 5 -a 2 -x {7.0 1.0 0 ------- null}
- -t 0.5935672170149 -s 7 -d 6 -p ack -e 40 -c 2 -i 5 -a 2 -x {7.0 1.0 0 ------- null}
h -t 0.5935672170149 -s 7 -d 6 -p ack -e 40 -c 2 -i 5 -a 2 -x {7.0 1.0 -1 ------- null}
r -t 0.619904 -s 1 -d 0 -p ack -e 40 -c 4 -i 4 -a 4 -x {5.0 3.0 0 ------- null}
+ -t 0.619904 -s 0 -d 3 -p ack -e 40 -c 4 -i 4 -a 4 -x {5.0 3.0 0 ------- null}
- -t 0.619904 -s 0 -d 3 -p ack -e 40 -c 4 -i 4 -a 4 -x {5.0 3.0 0 ------- null}
h -t 0.619904 -s 0 -d 3 -p ack -e 40 -c 4 -i 4 -a 4 -x {5.0 3.0 -1 ------- null}
r -t 0.62 -s 4 -d 8 -p tcp -e 1500 -c 1 -i 0 -a 1 -x {0.0 8.0 0 ------- null}
+ -t 0.62 -s 8 -d 4 -p ack -e 40 -c 1 -i 6 -a 1 -x {8.0 0.0 0 ------- null}
- -t 0.62 -s 8 -d 4 -p ack -e 40 -c 1 -i 6 -a 1 -x {8.0 0.0 0 ------- null}
h -t 0.62 -s 8 -d 4 -p ack -e 40 -c 1 -i 6 -a 1 -x {8.0 0.0 -1 ------- null}
r -t 0.6438872170149 -s 7 -d 6 -p ack -e 40 -c 2 -i 5 -a 2 -x {7.0 1.0 0 ------- null}
+ -t 0.6438872170149 -s 6 -d 3 -p ack -e 40 -c 2 -i 5 -a 2 -x {7.0 1.0 0 ------- null}
- -t 0.6438872170149 -s 6 -d 3 -p ack -e 40 -c 2 -i 5 -a 2 -x {7.0 1.0 0 ------- null}
h -t 0.6438872170149 -s 6 -d 3 -p ack -e 40 -c 2 -i 5 -a 2 -x {7.0 1.0 -1 ------- null}
r -t 0.705462013838808 -s 4 -d 6 -p exp -e 1000 -c 3 -i 2 -a 3 -x {2.0 6.0 0 ------- null}
+ -t 0.705462013838808 -s 6 -d 4 -p ack -e 40 -c 3 -i 7 -a 3 -x {6.0 2.0 0 ------- null}
- -t 0.705462013838808 -s 6 -d 4 -p ack -e 40 -c 3 -i 7 -a 3 -x {6.0 2.0 0 ------- null}
h -t 0.705462013838808 -s 6 -d 4 -p ack -e 40 -c 3 -i 7 -a 3 -x {6.0 2.0 -1 ------- null}
r -t 0.719968 -s 0 -d 3 -p ack -e 40 -c 4 -i 4 -a 4 -x {5.0 3.0 0 ------- null}
+ -t 0.719968 -s 3 -d 0 -p tcp -e 1000 -c 4 -i 8 -a 4 -x {3.0 5.0 1 ------- null}
- -t 0.719968 -s 3 -d 0 -p tcp -e 1000 -c 4 -i 8 -a 4 -x {3.0 5.0 1 ------- null}
h -t 0.719968 -s 3 -d 0 -p tcp -e 1000 -c 4 -i 8 -a 4 -x {3.0 5.0 -1 ------- null}
r -t 0.7439512170149 -s 6 -d 3 -p ack -e 40 -c 2 -i 5 -a 2 -x {7.0 1.0 0 ------- null}
+ -t 0.7439512170149 -s 3 -d 0 -p ack -e 40 -c 2 -i 5 -a 2 -x {7.0 1.0 0 ------- null}
- -t 0.7439512170149 -s 3 -d 0 -p ack -e 40 -c 2 -i 5 -a 2 -x {7.0 1.0 0 ------- null}
h -t 0.7439512170149 -s 3 -d 0 -p ack -e 40 -c 2 -i 5 -a 2 -x {7.0 1.0 -1 ------- null}
r -t 0.821568 -s 3 -d 0 -p tcp -e 1000 -c 4 -i 8 -a 4 -x {3.0 5.0 1 ------- null}
+ -t 0.821568 -s 0 -d 1 -p tcp -e 1000 -c 4 -i 8 -a 4 -x {3.0 5.0 1 ------- null}
- -t 0.821568 -s 0 -d 1 -p tcp -e 1000 -c 4 -i 8 -a 4 -x {3.0 5.0 1 ------- null}
h -t 0.821568 -s 0 -d 1 -p tcp -e 1000 -c 4 -i 8 -a 4 -x {3.0 5.0 -1 ------- null}
r -t 0.8216 -s 8 -d 4 -p ack -e 40 -c 1 -i 6 -a 1 -x {8.0 0.0 0 ------- null}
+ -t 0.8216 -s 4 -d 0 -p ack -e 40 -c 1 -i 6 -a 1 -x {8.0 0.0 0 ------- null}
- -t 0.8216 -s 4 -d 0 -p ack -e 40 -c 1 -i 6 -a 1 -x {8.0 0.0 0 ------- null}
h -t 0.8216 -s 4 -d 0 -p ack -e 40 -c 1 -i 6 -a 1 -x {8.0 0.0 -1 ------- null}
r -t 0.8440152170149 -s 3 -d 0 -p ack -e 40 -c 2 -i 5 -a 2 -x {7.0 1.0 0 ------- null}
+ -t 0.8440152170149 -s 0 -d 1 -p ack -e 40 -c 2 -i 5 -a 2 -x {7.0 1.0 0 ------- null}
- -t 0.8440152170149 -s 0 -d 1 -p ack -e 40 -c 2 -i 5 -a 2 -x {7.0 1.0 0 ------- null}
h -t 0.8440152170149 -s 0 -d 1 -p ack -e 40 -c 2 -i 5 -a 2 -x {7.0 1.0 -1 ------- null}
r -t 0.879568 -s 0 -d 1 -p tcp -e 1000 -c 4 -i 8 -a 4 -x {3.0 5.0 1 ------- null}
+ -t 0.879568 -s 1 -d 2 -p tcp -e 1000 -c 4 -i 8 -a 4 -x {3.0 5.0 1 ------- null}
- -t 0.879568 -s 1 -d 2 -p tcp -e 1000 -c 4 -i 8 -a 4 -x {3.0 5.0 1 ------- null}
h -t 0.879568 -s 1 -d 2 -p tcp -e 1000 -c 4 -i 8 -a 4 -x {3.0 5.0 -1 ------- null}
r -t 0.8943352170149 -s 0 -d 1 -p ack -e 40 -c 2 -i 5 -a 2 -x {7.0 1.0 0 ------- null}
+ -t 0.8943352170149 -s 1 -d 0 -p exp -e 1000 -c 2 -i 9 -a 2 -x {1.0 7.0 0 ------- null}
- -t 0.8943352170149 -s 1 -d 0 -p exp -e 1000 -c 2 -i 9 -a 2 -x {1.0 7.0 0 ------- null}
h -t 0.8943352170149 -s 1 -d 0 -p exp -e 1000 -c 2 -i 9 -a 2 -x {1.0 7.0 -1 ------- null}
r -t 0.907062013838808 -s 6 -d 4 -p ack -e 40 -c 3 -i 7 -a 3 -x {6.0 2.0 0 ------- null}
+ -t 0.907062013838808 -s 4 -d 2 -p ack -e 40 -c 3 -i 7 -a 3 -x {6.0 2.0 0 ------- null}
- -t 0.907062013838808 -s 4 -d 2 -p ack -e 40 -c 3 -i 7 -a 3 -x {6.0 2.0 0 ------- null}
h -t 0.907062013838808 -s 4 -d 2 -p ack -e 40 -c 3 -i 7 -a 3 -x {6.0 2.0 -1 ------- null}
r -t 0.937568 -s 1 -d 2 -p tcp -e 1000 -c 4 -i 8 -a 4 -x {3.0 5.0 1 ------- null}
+ -t 0.937568 -s 2 -d 5 -p tcp -e 1000 -c 4 -i 8 -a 4 -x {3.0 5.0 1 ------- null}
- -t 0.937568 -s 2 -d 5 -p tcp -e 1000 -c 4 -i 8 -a 4 -x {3.0 5.0 1 ------- null}
h -t 0.937568 -s 2 -d 5 -p tcp -e 1000 -c 4 -i 8 -a 4 -x {3.0 5.0 -1 ------- null}
r -t 0.952335217014901 -s 1 -d 0 -p exp -e 1000 -c 2 -i 9 -a 2 -x {1.0 7.0 0 ------- null}
+ -t 0.952335217014901 -s 0 -d 3 -p exp -e 1000 -c 2 -i 9 -a 2 -x {1.0 7.0 0 ------- null}
- -t 0.952335217014901 -s 0 -d 3 -p exp -e 1000 -c 2 -i 9 -a 2 -x {1.0 7.0 0 ------- null}
h -t 0.952335217014901 -s 0 -d 3 -p exp -e 1000 -c 2 -i 9 -a 2 -x {1.0 7.0 -1 ------- null}
r -t 1.0232 -s 4 -d 0 -p ack -e 40 -c 1 -i 6 -a 1 -x {8.0 0.0 0 ------- null}
+ -t 1.0232 -s 0 -d 4 -p tcp -e 1500 -c 1 -i 10 -a 1 -x {0.0 8.0 1 ------- null}
- -t 1.0232 -s 0 -d 4 -p tcp -e 1500 -c 1 -i 10 -a 1 -x {0.0 8.0 1 ------- null}
h -t 1.0232 -s 0 -d 4 -p tcp -e 1500 -c 1 -i 10 -a 1 -x {0.0 8.0 -1 ------- null}
r -t 1.039168 -s 2 -d 5 -p tcp -e 1000 -c 4 -i 8 -a 4 -x {3.0 5.0 1 ------- null}
+ -t 1.039168 -s 5 -d 2 -p ack -e 40 -c 4 -i 11 -a 4 -x {5.0 3.0 1 ------- null}
- -t 1.039168 -s 5 -d 2 -p ack -e 40 -c 4 -i 11 -a 4 -x {5.0 3.0 1 ------- null}
h -t 1.039168 -s 5 -d 2 -p ack -e 40 -c 4 -i 11 -a 4 -x {5.0 3.0 -1 ------- null}
r -t 1.0539352170149 -s 0 -d 3 -p exp -e 1000 -c 2 -i 9 -a 2 -x {1.0 7.0 0 ------- null}
+ -t 1.0539352170149 -s 3 -d 6 -p exp -e 1000 -c 2 -i 9 -a 2 -x {1.0 7.0 0 ------- null}
- -t 1.0539352170149 -s 3 -d 6 -p exp -e 1000 -c 2 -i 9 -a 2 -x {1.0 7.0 0 ------- null}
h -t 1.0539352170149 -s 3 -d 6 -p exp -e 1000 -c 2 -i 9 -a 2 -x {1.0 7.0 -1 ------- null}
r -t 1.10866201383881 -s 4 -d 2 -p ack -e 40 -c 3 -i 7 -a 3 -x {6.0 2.0 0 ------- null}
+ -t 1.10866201383881 -s 2 -d 4 -p exp -e 1000 -c 3 -i 12 -a 3 -x {2.0 6.0 0 ------- null}
- -t 1.10866201383881 -s 2 -d 4 -p exp -e 1000 -c 3 -i 12 -a 3 -x {2.0 6.0 0 ------- null}
h -t 1.10866201383881 -s 2 -d 4 -p exp -e 1000 -c 3 -i 12 -a 3 -x {2.0 6.0 -1 ------- null}
r -t 1.139232 -s 5 -d 2 -p ack -e 40 -c 4 -i 11 -a 4 -x {5.0 3.0 1 ------- null}
+ -t 1.139232 -s 2 -d 1 -p ack -e 40 -c 4 -i 11 -a 4 -x {5.0 3.0 1 ------- null}
- -t 1.139232 -s 2 -d 1 -p ack -e 40 -c 4 -i 11 -a 4 -x {5.0 3.0 1 ------- null}
h -t 1.139232 -s 2 -d 1 -p ack -e 40 -c 4 -i 11 -a 4 -x {5.0 3.0 -1 ------- null}
r -t 1.1555352170149 -s 3 -d 6 -p exp -e 1000 -c 2 -i 9 -a 2 -x {1.0 7.0 0 ------- null}
+ -t 1.1555352170149 -s 6 -d 7 -p exp -e 1000 -c 2 -i 9 -a 2 -x {1.0 7.0 0 ------- null}
- -t 1.1555352170149 -s 6 -d 7 -p exp -e 1000 -c 2 -i 9 -a 2 -x {1.0 7.0 0 ------- null}
h -t 1.1555352170149 -s 6 -d 7 -p exp -e 1000 -c 2 -i 9 -a 2 -x {1.0 7.0 -1 ------- null}
r -t 1.189552 -s 2 -d 1 -p ack -e 40 -c 4 -i 11 -a 4 -x {5.0 3.0 1 ------- null}
+ -t 1.189552 -s 1 -d 0 -p ack -e 40 -c 4 -i 11 -a 4 -x {5.0 3.0 1 ------- null}
- -t 1.189552 -s 1 -d 0 -p ack -e 40 -c 4 -i 11 -a 4 -x {5.0 3.0 1 ------- null}
h -t 1.189552 -s 1 -d 0 -p ack -e 40 -c 4 -i 11 -a 4 -x {5.0 3.0 -1 ------- null}
r -t 1.2135352170149 -s 6 -d 7 -p exp -e 1000 -c 2 -i 9 -a 2 -x {1.0 7.0 0 ------- null}
+ -t 1.2135352170149 -s 7 -d 6 -p ack -e 40 -c 2 -i 13 -a 2 -x {7.0 1.0 1 ------- null}
- -t 1.2135352170149 -s 7 -d 6 -p ack -e 40 -c 2 -i 13 -a 2 -x {7.0 1.0 1 ------- null}
h -t 1.2135352170149 -s 7 -d 6 -p ack -e 40 -c 2 -i 13 -a 2 -x {7.0 1.0 -1 ------- null}
r -t 1.239872 -s 1 -d 0 -p ack -e 40 -c 4 -i 11 -a 4 -x {5.0 3.0 1 ------- null}
+ -t 1.239872 -s 0 -d 3 -p ack -e 40 -c 4 -i 11 -a 4 -x {5.0 3.0 1 ------- null}
- -t 1.239872 -s 0 -d 3 -p ack -e 40 -c 4 -i 11 -a 4 -x {5.0 3.0 1 ------- null}
h -t 1.239872 -s 0 -d 3 -p ack -e 40 -c 4 -i 11 -a 4 -x {5.0 3.0 -1 ------- null}
r -t 1.2638552170149 -s 7 -d 6 -p ack -e 40 -c 2 -i 13 -a 2 -x {7.0 1.0 1 ------- null}
+ -t 1.2638552170149 -s 6 -d 3 -p ack -e 40 -c 2 -i 13 -a 2 -x {7.0 1.0 1 ------- null}
- -t 1.2638552170149 -s 6 -d 3 -p ack -e 40 -c 2 -i 13 -a 2 -x {7.0 1.0 1 ------- null}
h -t 1.2638552170149 -s 6 -d 3 -p ack -e 40 -c 2 -i 13 -a 2 -x {7.0 1.0 -1 ------- null}
r -t 1.2832 -s 0 -d 4 -p tcp -e 1500 -c 1 -i 10 -a 1 -x {0.0 8.0 1 ------- null}
+ -t 1.2832 -s 4 -d 8 -p tcp -e 1500 -c 1 -i 10 -a 1 -x {0.0 8.0 1 ------- null}
- -t 1.2832 -s 4 -d 8 -p tcp -e 1500 -c 1 -i 10 -a 1 -x {0.0 8.0 1 ------- null}
h -t 1.2832 -s 4 -d 8 -p tcp -e 1500 -c 1 -i 10 -a 1 -x {0.0 8.0 -1 ------- null}
r -t 1.339936 -s 0 -d 3 -p ack -e 40 -c 4 -i 11 -a 4 -x {5.0 3.0 1 ------- null}
+ -t 1.339936 -s 3 -d 0 -p tcp -e 1000 -c 4 -i 14 -a 4 -x {3.0 5.0 2 ------- null}
- -t 1.339936 -s 3 -d 0 -p tcp -e 1000 -c 4 -i 14 -a 4 -x {3.0 5.0 2 ------- null}
h -t 1.339936 -s 3 -d 0 -p tcp -e 1000 -c 4 -i 14 -a 4 -x {3.0 5.0 -1 ------- null}
+ -t 1.339936 -s 3 -d 0 -p tcp -e 1000 -c 4 -i 15 -a 4 -x {3.0 5.0 3 ------- null}
+ -t 1.339936 -s 3 -d 0 -p tcp -e 1000 -c 4 -i 16 -a 4 -x {3.0 5.0 4 ------- null}
- -t 1.341536 -s 3 -d 0 -p tcp -e 1000 -c 4 -i 15 -a 4 -x {3.0 5.0 3 ------- null}
h -t 1.341536 -s 3 -d 0 -p tcp -e 1000 -c 4 -i 15 -a 4 -x {3.0 5.0 -1 ------- null}
- -t 1.343136 -s 3 -d 0 -p tcp -e 1000 -c 4 -i 16 -a 4 -x {3.0 5.0 4 ------- null}
h -t 1.343136 -s 3 -d 0 -p tcp -e 1000 -c 4 -i 16 -a 4 -x {3.0 5.0 -1 ------- null}
r -t 1.34866201383881 -s 2 -d 4 -p exp -e 1000 -c 3 -i 12 -a 3 -x {2.0 6.0 0 ------- null}
+ -t 1.34866201383881 -s 4 -d 6 -p exp -e 1000 -c 3 -i 12 -a 3 -x {2.0 6.0 0 ------- null}
- -t 1.34866201383881 -s 4 -d 6 -p exp -e 1000 -c 3 -i 12 -a 3 -x {2.0 6.0 0 ------- null}
h -t 1.34866201383881 -s 4 -d 6 -p exp -e 1000 -c 3 -i 12 -a 3 -x {2.0 6.0 -1 ------- null}
r -t 1.3639192170149 -s 6 -d 3 -p ack -e 40 -c 2 -i 13 -a 2 -x {7.0 1.0 1 ------- null}
+ -t 1.3639192170149 -s 3 -d 0 -p ack -e 40 -c 2 -i 13 -a 2 -x {7.0 1.0 1 ------- null}
- -t 1.3639192170149 -s 3 -d 0 -p ack -e 40 -c 2 -i 13 -a 2 -x {7.0 1.0 1 ------- null}
h -t 1.3639192170149 -s 3 -d 0 -p ack -e 40 -c 2 -i 13 -a 2 -x {7.0 1.0 -1 ------- null}
r -t 1.441536 -s 3 -d 0 -p tcp -e 1000 -c 4 -i 14 -a 4 -x {3.0 5.0 2 ------- null}
+ -t 1.441536 -s 0 -d 1 -p tcp -e 1000 -c 4 -i 14 -a 4 -x {3.0 5.0 2 ------- null}
- -t 1.441536 -s 0 -d 1 -p tcp -e 1000 -c 4 -i 14 -a 4 -x {3.0 5.0 2 ------- null}
h -t 1.441536 -s 0 -d 1 -p tcp -e 1000 -c 4 -i 14 -a 4 -x {3.0 5.0 -1 ------- null}
r -t 1.443136 -s 3 -d 0 -p tcp -e 1000 -c 4 -i 15 -a 4 -x {3.0 5.0 3 ------- null}
+ -t 1.443136 -s 0 -d 1 -p tcp -e 1000 -c 4 -i 15 -a 4 -x {3.0 5.0 3 ------- null}
r -t 1.444736 -s 3 -d 0 -p tcp -e 1000 -c 4 -i 16 -a 4 -x {3.0 5.0 4 ------- null}
+ -t 1.444736 -s 0 -d 1 -p tcp -e 1000 -c 4 -i 16 -a 4 -x {3.0 5.0 4 ------- null}
- -t 1.449536 -s 0 -d 1 -p tcp -e 1000 -c 4 -i 15 -a 4 -x {3.0 5.0 3 ------- null}
h -t 1.449536 -s 0 -d 1 -p tcp -e 1000 -c 4 -i 15 -a 4 -x {3.0 5.0 -1 ------- null}
- -t 1.457536 -s 0 -d 1 -p tcp -e 1000 -c 4 -i 16 -a 4 -x {3.0 5.0 4 ------- null}
h -t 1.457536 -s 0 -d 1 -p tcp -e 1000 -c 4 -i 16 -a 4 -x {3.0 5.0 -1 ------- null}
r -t 1.4639832170149 -s 3 -d 0 -p ack -e 40 -c 2 -i 13 -a 2 -x {7.0 1.0 1 ------- null}
+ -t 1.4639832170149 -s 0 -d 1 -p ack -e 40 -c 2 -i 13 -a 2 -x {7.0 1.0 1 ------- null}
- -t 1.465536 -s 0 -d 1 -p ack -e 40 -c 2 -i 13 -a 2 -x {7.0 1.0 1 ------- null}
h -t 1.465536 -s 0 -d 1 -p ack -e 40 -c 2 -i 13 -a 2 -x {7.0 1.0 -1 ------- null}
r -t 1.499536 -s 0 -d 1 -p tcp -e 1000 -c 4 -i 14 -a 4 -x {3.0 5.0 2 ------- null}
+ -t 1.499536 -s 1 -d 2 -p tcp -e 1000 -c 4 -i 14 -a 4 -x {3.0 5.0 2 ------- null}
- -t 1.499536 -s 1 -d 2 -p tcp -e 1000 -c 4 -i 14 -a 4 -x {3.0 5.0 2 ------- null}
h -t 1.499536 -s 1 -d 2 -p tcp -e 1000 -c 4 -i 14 -a 4 -x {3.0 5.0 -1 ------- null}
r -t 1.507536 -s 0 -d 1 -p tcp -e 1000 -c 4 -i 15 -a 4 -x {3.0 5.0 3 ------- null}
+ -t 1.507536 -s 1 -d 2 -p tcp -e 1000 -c 4 -i 15 -a 4 -x {3.0 5.0 3 ------- null}
- -t 1.507536 -s 1 -d 2 -p tcp -e 1000 -c 4 -i 15 -a 4 -x {3.0 5.0 3 ------- null}
h -t 1.507536 -s 1 -d 2 -p tcp -e 1000 -c 4 -i 15 -a 4 -x {3.0 5.0 -1 ------- null}
r -t 1.515536 -s 0 -d 1 -p tcp -e 1000 -c 4 -i 16 -a 4 -x {3.0 5.0 4 ------- null}
+ -t 1.515536 -s 1 -d 2 -p tcp -e 1000 -c 4 -i 16 -a 4 -x {3.0 5.0 4 ------- null}
- -t 1.515536 -s 1 -d 2 -p tcp -e 1000 -c 4 -i 16 -a 4 -x {3.0 5.0 4 ------- null}
h -t 1.515536 -s 1 -d 2 -p tcp -e 1000 -c 4 -i 16 -a 4 -x {3.0 5.0 -1 ------- null}
r -t 1.515856 -s 0 -d 1 -p ack -e 40 -c 2 -i 13 -a 2 -x {7.0 1.0 1 ------- null}
+ -t 1.515856 -s 1 -d 0 -p exp -e 1000 -c 2 -i 17 -a 2 -x {1.0 7.0 0 ------- null}
- -t 1.515856 -s 1 -d 0 -p exp -e 1000 -c 2 -i 17 -a 2 -x {1.0 7.0 0 ------- null}
h -t 1.515856 -s 1 -d 0 -p exp -e 1000 -c 2 -i 17 -a 2 -x {1.0 7.0 -1 ------- null}
+ -t 1.515856 -s 1 -d 0 -p exp -e 1000 -c 2 -i 18 -a 2 -x {1.0 7.0 0 ------- null}
+ -t 1.515856 -s 1 -d 0 -p exp -e 1000 -c 2 -i 19 -a 2 -x {1.0 7.0 0 ------- null}
- -t 1.523856 -s 1 -d 0 -p exp -e 1000 -c 2 -i 18 -a 2 -x {1.0 7.0 0 ------- null}
h -t 1.523856 -s 1 -d 0 -p exp -e 1000 -c 2 -i 18 -a 2 -x {1.0 7.0 -1 ------- null}
- -t 1.531856 -s 1 -d 0 -p exp -e 1000 -c 2 -i 19 -a 2 -x {1.0 7.0 0 ------- null}
h -t 1.531856 -s 1 -d 0 -p exp -e 1000 -c 2 -i 19 -a 2 -x {1.0 7.0 -1 ------- null}
r -t 1.5432 -s 4 -d 8 -p tcp -e 1500 -c 1 -i 10 -a 1 -x {0.0 8.0 1 ------- null}
+ -t 1.5432 -s 8 -d 4 -p ack -e 40 -c 1 -i 20 -a 1 -x {8.0 0.0 1 ------- null}
- -t 1.5432 -s 8 -d 4 -p ack -e 40 -c 1 -i 20 -a 1 -x {8.0 0.0 1 ------- null}
h -t 1.5432 -s 8 -d 4 -p ack -e 40 -c 1 -i 20 -a 1 -x {8.0 0.0 -1 ------- null}
r -t 1.557536 -s 1 -d 2 -p tcp -e 1000 -c 4 -i 14 -a 4 -x {3.0 5.0 2 ------- null}
+ -t 1.557536 -s 2 -d 5 -p tcp -e 1000 -c 4 -i 14 -a 4 -x {3.0 5.0 2 ------- null}
- -t 1.557536 -s 2 -d 5 -p tcp -e 1000 -c 4 -i 14 -a 4 -x {3.0 5.0 2 ------- null}
h -t 1.557536 -s 2 -d 5 -p tcp -e 1000 -c 4 -i 14 -a 4 -x {3.0 5.0 -1 ------- null}
r -t 1.565536 -s 1 -d 2 -p tcp -e 1000 -c 4 -i 15 -a 4 -x {3.0 5.0 3 ------- null}
+ -t 1.565536 -s 2 -d 5 -p tcp -e 1000 -c 4 -i 15 -a 4 -x {3.0 5.0 3 ------- null}
- -t 1.565536 -s 2 -d 5 -p tcp -e 1000 -c 4 -i 15 -a 4 -x {3.0 5.0 3 ------- null}
h -t 1.565536 -s 2 -d 5 -p tcp -e 1000 -c 4 -i 15 -a 4 -x {3.0 5.0 -1 ------- null}
r -t 1.573536 -s 1 -d 2 -p tcp -e 1000 -c 4 -i 16 -a 4 -x {3.0 5.0 4 ------- null}
+ -t 1.573536 -s 2 -d 5 -p tcp -e 1000 -c 4 -i 16 -a 4 -x {3.0 5.0 4 ------- null}
- -t 1.573536 -s 2 -d 5 -p tcp -e 1000 -c 4 -i 16 -a 4 -x {3.0 5.0 4 ------- null}
h -t 1.573536 -s 2 -d 5 -p tcp -e 1000 -c 4 -i 16 -a 4 -x {3.0 5.0 -1 ------- null}
r -t 1.573856 -s 1 -d 0 -p exp -e 1000 -c 2 -i 17 -a 2 -x {1.0 7.0 0 ------- null}
+ -t 1.573856 -s 0 -d 3 -p exp -e 1000 -c 2 -i 17 -a 2 -x {1.0 7.0 0 ------- null}
- -t 1.573856 -s 0 -d 3 -p exp -e 1000 -c 2 -i 17 -a 2 -x {1.0 7.0 0 ------- null}
h -t 1.573856 -s 0 -d 3 -p exp -e 1000 -c 2 -i 17 -a 2 -x {1.0 7.0 -1 ------- null}
r -t 1.581856 -s 1 -d 0 -p exp -e 1000 -c 2 -i 18 -a 2 -x {1.0 7.0 0 ------- null}
+ -t 1.581856 -s 0 -d 3 -p exp -e 1000 -c 2 -i 18 -a 2 -x {1.0 7.0 0 ------- null}
- -t 1.581856 -s 0 -d 3 -p exp -e 1000 -c 2 -i 18 -a 2 -x {1.0 7.0 0 ------- null}
h -t 1.581856 -s 0 -d 3 -p exp -e 1000 -c 2 -i 18 -a 2 -x {1.0 7.0 -1 ------- null}
r -t 1.58866201383881 -s 4 -d 6 -p exp -e 1000 -c 3 -i 12 -a 3 -x {2.0 6.0 0 ------- null}
+ -t 1.58866201383881 -s 6 -d 4 -p ack -e 40 -c 3 -i 21 -a 3 -x {6.0 2.0 1 ------- null}
- -t 1.58866201383881 -s 6 -d 4 -p ack -e 40 -c 3 -i 21 -a 3 -x {6.0 2.0 1 ------- null}
h -t 1.58866201383881 -s 6 -d 4 -p ack -e 40 -c 3 -i 21 -a 3 -x {6.0 2.0 -1 ------- null}
r -t 1.589856 -s 1 -d 0 -p exp -e 1000 -c 2 -i 19 -a 2 -x {1.0 7.0 0 ------- null}
+ -t 1.589856 -s 0 -d 3 -p exp -e 1000 -c 2 -i 19 -a 2 -x {1.0 7.0 0 ------- null}
- -t 1.589856 -s 0 -d 3 -p exp -e 1000 -c 2 -i 19 -a 2 -x {1.0 7.0 0 ------- null}
h -t 1.589856 -s 0 -d 3 -p exp -e 1000 -c 2 -i 19 -a 2 -x {1.0 7.0 -1 ------- null}
r -t 1.659136 -s 2 -d 5 -p tcp -e 1000 -c 4 -i 14 -a 4 -x {3.0 5.0 2 ------- null}
+ -t 1.659136 -s 5 -d 2 -p ack -e 40 -c 4 -i 22 -a 4 -x {5.0 3.0 2 ------- null}
- -t 1.659136 -s 5 -d 2 -p ack -e 40 -c 4 -i 22 -a 4 -x {5.0 3.0 2 ------- null}
h -t 1.659136 -s 5 -d 2 -p ack -e 40 -c 4 -i 22 -a 4 -x {5.0 3.0 -1 ------- null}
r -t 1.667136 -s 2 -d 5 -p tcp -e 1000 -c 4 -i 15 -a 4 -x {3.0 5.0 3 ------- null}
+ -t 1.667136 -s 5 -d 2 -p ack -e 40 -c 4 -i 23 -a 4 -x {5.0 3.0 3 ------- null}
- -t 1.667136 -s 5 -d 2 -p ack -e 40 -c 4 -i 23 -a 4 -x {5.0 3.0 3 ------- null}
h -t 1.667136 -s 5 -d 2 -p ack -e 40 -c 4 -i 23 -a 4 -x {5.0 3.0 -1 ------- null}
r -t 1.675136 -s 2 -d 5 -p tcp -e 1000 -c 4 -i 16 -a 4 -x {3.0 5.0 4 ------- null}
+ -t 1.675136 -s 5 -d 2 -p ack -e 40 -c 4 -i 24 -a 4 -x {5.0 3.0 4 ------- null}
- -t 1.675136 -s 5 -d 2 -p ack -e 40 -c 4 -i 24 -a 4 -x {5.0 3.0 4 ------- null}
h -t 1.675136 -s 5 -d 2 -p ack -e 40 -c 4 -i 24 -a 4 -x {5.0 3.0 -1 ------- null}
r -t 1.675456 -s 0 -d 3 -p exp -e 1000 -c 2 -i 17 -a 2 -x {1.0 7.0 0 ------- null}
+ -t 1.675456 -s 3 -d 6 -p exp -e 1000 -c 2 -i 17 -a 2 -x {1.0 7.0 0 ------- null}
- -t 1.675456 -s 3 -d 6 -p exp -e 1000 -c 2 -i 17 -a 2 -x {1.0 7.0 0 ------- null}
h -t 1.675456 -s 3 -d 6 -p exp -e 1000 -c 2 -i 17 -a 2 -x {1.0 7.0 -1 ------- null}
r -t 1.683456 -s 0 -d 3 -p exp -e 1000 -c 2 -i 18 -a 2 -x {1.0 7.0 0 ------- null}
+ -t 1.683456 -s 3 -d 6 -p exp -e 1000 -c 2 -i 18 -a 2 -x {1.0 7.0 0 ------- null}
- -t 1.683456 -s 3 -d 6 -p exp -e 1000 -c 2 -i 18 -a 2 -x {1.0 7.0 0 ------- null}
h -t 1.683456 -s 3 -d 6 -p exp -e 1000 -c 2 -i 18 -a 2 -x {1.0 7.0 -1 ------- null}
r -t 1.691456 -s 0 -d 3 -p exp -e 1000 -c 2 -i 19 -a 2 -x {1.0 7.0 0 ------- null}
+ -t 1.691456 -s 3 -d 6 -p exp -e 1000 -c 2 -i 19 -a 2 -x {1.0 7.0 0 ------- null}
- -t 1.691456 -s 3 -d 6 -p exp -e 1000 -c 2 -i 19 -a 2 -x {1.0 7.0 0 ------- null}
h -t 1.691456 -s 3 -d 6 -p exp -e 1000 -c 2 -i 19 -a 2 -x {1.0 7.0 -1 ------- null}
r -t 1.7448 -s 8 -d 4 -p ack -e 40 -c 1 -i 20 -a 1 -x {8.0 0.0 1 ------- null}
+ -t 1.7448 -s 4 -d 0 -p ack -e 40 -c 1 -i 20 -a 1 -x {8.0 0.0 1 ------- null}
- -t 1.7448 -s 4 -d 0 -p ack -e 40 -c 1 -i 20 -a 1 -x {8.0 0.0 1 ------- null}
h -t 1.7448 -s 4 -d 0 -p ack -e 40 -c 1 -i 20 -a 1 -x {8.0 0.0 -1 ------- null}
r -t 1.7592 -s 5 -d 2 -p ack -e 40 -c 4 -i 22 -a 4 -x {5.0 3.0 2 ------- null}
+ -t 1.7592 -s 2 -d 1 -p ack -e 40 -c 4 -i 22 -a 4 -x {5.0 3.0 2 ------- null}
- -t 1.7592 -s 2 -d 1 -p ack -e 40 -c 4 -i 22 -a 4 -x {5.0 3.0 2 ------- null}
h -t 1.7592 -s 2 -d 1 -p ack -e 40 -c 4 -i 22 -a 4 -x {5.0 3.0 -1 ------- null}
r -t 1.7672 -s 5 -d 2 -p ack -e 40 -c 4 -i 23 -a 4 -x {5.0 3.0 3 ------- null}
+ -t 1.7672 -s 2 -d 1 -p ack -e 40 -c 4 -i 23 -a 4 -x {5.0 3.0 3 ------- null}
- -t 1.7672 -s 2 -d 1 -p ack -e 40 -c 4 -i 23 -a 4 -x {5.0 3.0 3 ------- null}
h -t 1.7672 -s 2 -d 1 -p ack -e 40 -c 4 -i 23 -a 4 -x {5.0 3.0 -1 ------- null}
r -t 1.7752 -s 5 -d 2 -p ack -e 40 -c 4 -i 24 -a 4 -x {5.0 3.0 4 ------- null}
+ -t 1.7752 -s 2 -d 1 -p ack -e 40 -c 4 -i 24 -a 4 -x {5.0 3.0 4 ------- null}
- -t 1.7752 -s 2 -d 1 -p ack -e 40 -c 4 -i 24 -a 4 -x {5.0 3.0 4 ------- null}
h -t 1.7752 -s 2 -d 1 -p ack -e 40 -c 4 -i 24 -a 4 -x {5.0 3.0 -1 ------- null}
r -t 1.777056 -s 3 -d 6 -p exp -e 1000 -c 2 -i 17 -a 2 -x {1.0 7.0 0 ------- null}
+ -t 1.777056 -s 6 -d 7 -p exp -e 1000 -c 2 -i 17 -a 2 -x {1.0 7.0 0 ------- null}
- -t 1.777056 -s 6 -d 7 -p exp -e 1000 -c 2 -i 17 -a 2 -x {1.0 7.0 0 ------- null}
h -t 1.777056 -s 6 -d 7 -p exp -e 1000 -c 2 -i 17 -a 2 -x {1.0 7.0 -1 ------- null}
r -t 1.785056 -s 3 -d 6 -p exp -e 1000 -c 2 -i 18 -a 2 -x {1.0 7.0 0 ------- null}
+ -t 1.785056 -s 6 -d 7 -p exp -e 1000 -c 2 -i 18 -a 2 -x {1.0 7.0 0 ------- null}
- -t 1.785056 -s 6 -d 7 -p exp -e 1000 -c 2 -i 18 -a 2 -x {1.0 7.0 0 ------- null}
h -t 1.785056 -s 6 -d 7 -p exp -e 1000 -c 2 -i 18 -a 2 -x {1.0 7.0 -1 ------- null}
r -t 1.79026201383881 -s 6 -d 4 -p ack -e 40 -c 3 -i 21 -a 3 -x {6.0 2.0 1 ------- null}
+ -t 1.79026201383881 -s 4 -d 2 -p ack -e 40 -c 3 -i 21 -a 3 -x {6.0 2.0 1 ------- null}
- -t 1.79026201383881 -s 4 -d 2 -p ack -e 40 -c 3 -i 21 -a 3 -x {6.0 2.0 1 ------- null}
h -t 1.79026201383881 -s 4 -d 2 -p ack -e 40 -c 3 -i 21 -a 3 -x {6.0 2.0 -1 ------- null}
r -t 1.793056 -s 3 -d 6 -p exp -e 1000 -c 2 -i 19 -a 2 -x {1.0 7.0 0 ------- null}
+ -t 1.793056 -s 6 -d 7 -p exp -e 1000 -c 2 -i 19 -a 2 -x {1.0 7.0 0 ------- null}
- -t 1.793056 -s 6 -d 7 -p exp -e 1000 -c 2 -i 19 -a 2 -x {1.0 7.0 0 ------- null}
h -t 1.793056 -s 6 -d 7 -p exp -e 1000 -c 2 -i 19 -a 2 -x {1.0 7.0 -1 ------- null}
r -t 1.80952 -s 2 -d 1 -p ack -e 40 -c 4 -i 22 -a 4 -x {5.0 3.0 2 ------- null}
+ -t 1.80952 -s 1 -d 0 -p ack -e 40 -c 4 -i 22 -a 4 -x {5.0 3.0 2 ------- null}
- -t 1.80952 -s 1 -d 0 -p ack -e 40 -c 4 -i 22 -a 4 -x {5.0 3.0 2 ------- null}
h -t 1.80952 -s 1 -d 0 -p ack -e 40 -c 4 -i 22 -a 4 -x {5.0 3.0 -1 ------- null}
r -t 1.81752 -s 2 -d 1 -p ack -e 40 -c 4 -i 23 -a 4 -x {5.0 3.0 3 ------- null}
+ -t 1.81752 -s 1 -d 0 -p ack -e 40 -c 4 -i 23 -a 4 -x {5.0 3.0 3 ------- null}
- -t 1.81752 -s 1 -d 0 -p ack -e 40 -c 4 -i 23 -a 4 -x {5.0 3.0 3 ------- null}
h -t 1.81752 -s 1 -d 0 -p ack -e 40 -c 4 -i 23 -a 4 -x {5.0 3.0 -1 ------- null}
r -t 1.82552 -s 2 -d 1 -p ack -e 40 -c 4 -i 24 -a 4 -x {5.0 3.0 4 ------- null}
+ -t 1.82552 -s 1 -d 0 -p ack -e 40 -c 4 -i 24 -a 4 -x {5.0 3.0 4 ------- null}
- -t 1.82552 -s 1 -d 0 -p ack -e 40 -c 4 -i 24 -a 4 -x {5.0 3.0 4 ------- null}
h -t 1.82552 -s 1 -d 0 -p ack -e 40 -c 4 -i 24 -a 4 -x {5.0 3.0 -1 ------- null}
r -t 1.835056 -s 6 -d 7 -p exp -e 1000 -c 2 -i 17 -a 2 -x {1.0 7.0 0 ------- null}
+ -t 1.835056 -s 7 -d 6 -p ack -e 40 -c 2 -i 25 -a 2 -x {7.0 1.0 2 ------- null}
- -t 1.835056 -s 7 -d 6 -p ack -e 40 -c 2 -i 25 -a 2 -x {7.0 1.0 2 ------- null}
h -t 1.835056 -s 7 -d 6 -p ack -e 40 -c 2 -i 25 -a 2 -x {7.0 1.0 -1 ------- null}
r -t 1.843056 -s 6 -d 7 -p exp -e 1000 -c 2 -i 18 -a 2 -x {1.0 7.0 0 ------- null}
+ -t 1.843056 -s 7 -d 6 -p ack -e 40 -c 2 -i 26 -a 2 -x {7.0 1.0 3 ------- null}
- -t 1.843056 -s 7 -d 6 -p ack -e 40 -c 2 -i 26 -a 2 -x {7.0 1.0 3 ------- null}
h -t 1.843056 -s 7 -d 6 -p ack -e 40 -c 2 -i 26 -a 2 -x {7.0 1.0 -1 ------- null}
r -t 1.851056 -s 6 -d 7 -p exp -e 1000 -c 2 -i 19 -a 2 -x {1.0 7.0 0 ------- null}
+ -t 1.851056 -s 7 -d 6 -p ack -e 40 -c 2 -i 27 -a 2 -x {7.0 1.0 4 ------- null}
- -t 1.851056 -s 7 -d 6 -p ack -e 40 -c 2 -i 27 -a 2 -x {7.0 1.0 4 ------- null}
h -t 1.851056 -s 7 -d 6 -p ack -e 40 -c 2 -i 27 -a 2 -x {7.0 1.0 -1 ------- null}
r -t 1.85984 -s 1 -d 0 -p ack -e 40 -c 4 -i 22 -a 4 -x {5.0 3.0 2 ------- null}
+ -t 1.85984 -s 0 -d 3 -p ack -e 40 -c 4 -i 22 -a 4 -x {5.0 3.0 2 ------- null}
- -t 1.85984 -s 0 -d 3 -p ack -e 40 -c 4 -i 22 -a 4 -x {5.0 3.0 2 ------- null}
h -t 1.85984 -s 0 -d 3 -p ack -e 40 -c 4 -i 22 -a 4 -x {5.0 3.0 -1 ------- null}
r -t 1.86784 -s 1 -d 0 -p ack -e 40 -c 4 -i 23 -a 4 -x {5.0 3.0 3 ------- null}
+ -t 1.86784 -s 0 -d 3 -p ack -e 40 -c 4 -i 23 -a 4 -x {5.0 3.0 3 ------- null}
- -t 1.86784 -s 0 -d 3 -p ack -e 40 -c 4 -i 23 -a 4 -x {5.0 3.0 3 ------- null}
h -t 1.86784 -s 0 -d 3 -p ack -e 40 -c 4 -i 23 -a 4 -x {5.0 3.0 -1 ------- null}
r -t 1.87584 -s 1 -d 0 -p ack -e 40 -c 4 -i 24 -a 4 -x {5.0 3.0 4 ------- null}
+ -t 1.87584 -s 0 -d 3 -p ack -e 40 -c 4 -i 24 -a 4 -x {5.0 3.0 4 ------- null}
- -t 1.87584 -s 0 -d 3 -p ack -e 40 -c 4 -i 24 -a 4 -x {5.0 3.0 4 ------- null}
h -t 1.87584 -s 0 -d 3 -p ack -e 40 -c 4 -i 24 -a 4 -x {5.0 3.0 -1 ------- null}
r -t 1.885376 -s 7 -d 6 -p ack -e 40 -c 2 -i 25 -a 2 -x {7.0 1.0 2 ------- null}