+ 0.1 0 4 tcp 1500 ------- 1 0.0 8.0 0 0
- 0.1 0 4 tcp 1500 ------- 1 0.0 8.0 0 0
+ 0.1 3 0 tcp 1000 ------- 4 3.0 5.0 0 1
- 0.1 3 0 tcp 1000 ------- 4 3.0 5.0 0 1
r 0.2016 3 0 tcp 1000 ------- 4 3.0 5.0 0 1
+ 0.2016 0 1 tcp 1000 ------- 4 3.0 5.0 0 1
- 0.2016 0 1 tcp 1000 ------- 4 3.0 5.0 0 1
+ 0.225462 2 4 exp 1000 ------- 3 2.0 6.0 0 2
- 0.225462 2 4 exp 1000 ------- 3 2.0 6.0 0 2
r 0.2596 0 1 tcp 1000 ------- 4 3.0 5.0 0 1
+ 0.2596 1 2 tcp 1000 ------- 4 3.0 5.0 0 1
- 0.2596 1 2 tcp 1000 ------- 4 3.0 5.0 0 1
+ 0.274367 1 0 exp 1000 ------- 2 1.0 7.0 0 3
- 0.274367 1 0 exp 1000 ------- 2 1.0 7.0 0 3
r 0.3176 1 2 tcp 1000 ------- 4 3.0 5.0 0 1
+ 0.3176 2 5 tcp 1000 ------- 4 3.0 5.0 0 1
- 0.3176 2 5 tcp 1000 ------- 4 3.0 5.0 0 1
r 0.332367 1 0 exp 1000 ------- 2 1.0 7.0 0 3
+ 0.332367 0 3 exp 1000 ------- 2 1.0 7.0 0 3
- 0.332367 0 3 exp 1000 ------- 2 1.0 7.0 0 3
r 0.36 0 4 tcp 1500 ------- 1 0.0 8.0 0 0
+ 0.36 4 8 tcp 1500 ------- 1 0.0 8.0 0 0
- 0.36 4 8 tcp 1500 ------- 1 0.0 8.0 0 0
r 0.4192 2 5 tcp 1000 ------- 4 3.0 5.0 0 1
+ 0.4192 5 2 ack 40 ------- 4 5.0 3.0 0 4
- 0.4192 5 2 ack 40 ------- 4 5.0 3.0 0 4
r 0.433967 0 3 exp 1000 ------- 2 1.0 7.0 0 3
+ 0.433967 3 6 exp 1000 ------- 2 1.0 7.0 0 3
- 0.433967 3 6 exp 1000 ------- 2 1.0 7.0 0 3
r 0.465462 2 4 exp 1000 ------- 3 2.0 6.0 0 2
+ 0.465462 4 6 exp 1000 ------- 3 2.0 6.0 0 2
- 0.465462 4 6 exp 1000 ------- 3 2.0 6.0 0 2
r 0.519264 5 2 ack 40 ------- 4 5.0 3.0 0 4
+ 0.519264 2 1 ack 40 ------- 4 5.0 3.0 0 4
- 0.519264 2 1 ack 40 ------- 4 5.0 3.0 0 4
r 0.535567 3 6 exp 1000 ------- 2 1.0 7.0 0 3
+ 0.535567 6 7 exp 1000 ------- 2 1.0 7.0 0 3
- 0.535567 6 7 exp 1000 ------- 2 1.0 7.0 0 3
r 0.569584 2 1 ack 40 ------- 4 5.0 3.0 0 4
+ 0.569584 1 0 ack 40 ------- 4 5.0 3.0 0 4
- 0.569584 1 0 ack 40 ------- 4 5.0 3.0 0 4
r 0.593567 6 7 exp 1000 ------- 2 1.0 7.0 0 3
+ 0.593567 7 6 ack 40 ------- 2 7.0 1.0 0 5
- 0.593567 7 6 ack 40 ------- 2 7.0 1.0 0 5
r 0.619904 1 0 ack 40 ------- 4 5.0 3.0 0 4
+ 0.619904 0 3 ack 40 ------- 4 5.0 3.0 0 4
- 0.619904 0 3 ack 40 ------- 4 5.0 3.0 0 4
r 0.62 4 8 tcp 1500 ------- 1 0.0 8.0 0 0
+ 0.62 8 4 ack 40 ------- 1 8.0 0.0 0 6
- 0.62 8 4 ack 40 ------- 1 8.0 0.0 0 6
r 0.643887 7 6 ack 40 ------- 2 7.0 1.0 0 5
+ 0.643887 6 3 ack 40 ------- 2 7.0 1.0 0 5
- 0.643887 6 3 ack 40 ------- 2 7.0 1.0 0 5
r 0.705462 4 6 exp 1000 ------- 3 2.0 6.0 0 2
+ 0.705462 6 4 ack 40 ------- 3 6.0 2.0 0 7
- 0.705462 6 4 ack 40 ------- 3 6.0 2.0 0 7
r 0.719968 0 3 ack 40 ------- 4 5.0 3.0 0 4
+ 0.719968 3 0 tcp 1000 ------- 4 3.0 5.0 1 8
- 0.719968 3 0 tcp 1000 ------- 4 3.0 5.0 1 8
r 0.743951 6 3 ack 40 ------- 2 7.0 1.0 0 5
+ 0.743951 3 0 ack 40 ------- 2 7.0 1.0 0 5
- 0.743951 3 0 ack 40 ------- 2 7.0 1.0 0 5
r 0.821568 3 0 tcp 1000 ------- 4 3.0 5.0 1 8
+ 0.821568 0 1 tcp 1000 ------- 4 3.0 5.0 1 8
- 0.821568 0 1 tcp 1000 ------- 4 3.0 5.0 1 8
r 0.8216 8 4 ack 40 ------- 1 8.0 0.0 0 6
+ 0.8216 4 0 ack 40 ------- 1 8.0 0.0 0 6
- 0.8216 4 0 ack 40 ------- 1 8.0 0.0 0 6
r 0.844015 3 0 ack 40 ------- 2 7.0 1.0 0 5
+ 0.844015 0 1 ack 40 ------- 2 7.0 1.0 0 5
- 0.844015 0 1 ack 40 ------- 2 7.0 1.0 0 5
r 0.879568 0 1 tcp 1000 ------- 4 3.0 5.0 1 8
+ 0.879568 1 2 tcp 1000 ------- 4 3.0 5.0 1 8
- 0.879568 1 2 tcp 1000 ------- 4 3.0 5.0 1 8
r 0.894335 0 1 ack 40 ------- 2 7.0 1.0 0 5
+ 0.894335 1 0 exp 1000 ------- 2 1.0 7.0 0 9
- 0.894335 1 0 exp 1000 ------- 2 1.0 7.0 0 9
r 0.907062 6 4 ack 40 ------- 3 6.0 2.0 0 7
+ 0.907062 4 2 ack 40 ------- 3 6.0 2.0 0 7
- 0.907062 4 2 ack 40 ------- 3 6.0 2.0 0 7
r 0.937568 1 2 tcp 1000 ------- 4 3.0 5.0 1 8
+ 0.937568 2 5 tcp 1000 ------- 4 3.0 5.0 1 8
- 0.937568 2 5 tcp 1000 ------- 4 3.0 5.0 1 8
r 0.952335 1 0 exp 1000 ------- 2 1.0 7.0 0 9
+ 0.952335 0 3 exp 1000 ------- 2 1.0 7.0 0 9
- 0.952335 0 3 exp 1000 ------- 2 1.0 7.0 0 9
r 1.0232 4 0 ack 40 ------- 1 8.0 0.0 0 6
+ 1.0232 0 4 tcp 1500 ------- 1 0.0 8.0 1 10
- 1.0232 0 4 tcp 1500 ------- 1 0.0 8.0 1 10
r 1.039168 2 5 tcp 1000 ------- 4 3.0 5.0 1 8
+ 1.039168 5 2 ack 40 ------- 4 5.0 3.0 1 11
- 1.039168 5 2 ack 40 ------- 4 5.0 3.0 1 11
r 1.053935 0 3 exp 1000 ------- 2 1.0 7.0 0 9
+ 1.053935 3 6 exp 1000 ------- 2 1.0 7.0 0 9
- 1.053935 3 6 exp 1000 ------- 2 1.0 7.0 0 9
r 1.108662 4 2 ack 40 ------- 3 6.0 2.0 0 7
+ 1.108662 2 4 exp 1000 ------- 3 2.0 6.0 0 12
- 1.108662 2 4 exp 1000 ------- 3 2.0 6.0 0 12
r 1.139232 5 2 ack 40 ------- 4 5.0 3.0 1 11
+ 1.139232 2 1 ack 40 ------- 4 5.0 3.0 1 11
- 1.139232 2 1 ack 40 ------- 4 5.0 3.0 1 11
r 1.155535 3 6 exp 1000 ------- 2 1.0 7.0 0 9
+ 1.155535 6 7 exp 1000 ------- 2 1.0 7.0 0 9
- 1.155535 6 7 exp 1000 ------- 2 1.0 7.0 0 9
r 1.189552 2 1 ack 40 ------- 4 5.0 3.0 1 11
+ 1.189552 1 0 ack 40 ------- 4 5.0 3.0 1 11
- 1.189552 1 0 ack 40 ------- 4 5.0 3.0 1 11
r 1.213535 6 7 exp 1000 ------- 2 1.0 7.0 0 9
+ 1.213535 7 6 ack 40 ------- 2 7.0 1.0 1 13
- 1.213535 7 6 ack 40 ------- 2 7.0 1.0 1 13
r 1.239872 1 0 ack 40 ------- 4 5.0 3.0 1 11
+ 1.239872 0 3 ack 40 ------- 4 5.0 3.0 1 11
- 1.239872 0 3 ack 40 ------- 4 5.0 3.0 1 11
r 1.263855 7 6 ack 40 ------- 2 7.0 1.0 1 13
+ 1.263855 6 3 ack 40 ------- 2 7.0 1.0 1 13
- 1.263855 6 3 ack 40 ------- 2 7.0 1.0 1 13
r 1.2832 0 4 tcp 1500 ------- 1 0.0 8.0 1 10
+ 1.2832 4 8 tcp 1500 ------- 1 0.0 8.0 1 10
- 1.2832 4 8 tcp 1500 ------- 1 0.0 8.0 1 10
r 1.339936 0 3 ack 40 ------- 4 5.0 3.0 1 11
+ 1.339936 3 0 tcp 1000 ------- 4 3.0 5.0 2 14
- 1.339936 3 0 tcp 1000 ------- 4 3.0 5.0 2 14
+ 1.339936 3 0 tcp 1000 ------- 4 3.0 5.0 3 15
+ 1.339936 3 0 tcp 1000 ------- 4 3.0 5.0 4 16
- 1.341536 3 0 tcp 1000 ------- 4 3.0 5.0 3 15
- 1.343136 3 0 tcp 1000 ------- 4 3.0 5.0 4 16
r 1.348662 2 4 exp 1000 ------- 3 2.0 6.0 0 12
+ 1.348662 4 6 exp 1000 ------- 3 2.0 6.0 0 12
- 1.348662 4 6 exp 1000 ------- 3 2.0 6.0 0 12
r 1.363919 6 3 ack 40 ------- 2 7.0 1.0 1 13
+ 1.363919 3 0 ack 40 ------- 2 7.0 1.0 1 13
- 1.363919 3 0 ack 40 ------- 2 7.0 1.0 1 13
r 1.441536 3 0 tcp 1000 ------- 4 3.0 5.0 2 14
+ 1.441536 0 1 tcp 1000 ------- 4 3.0 5.0 2 14
- 1.441536 0 1 tcp 1000 ------- 4 3.0 5.0 2 14
r 1.443136 3 0 tcp 1000 ------- 4 3.0 5.0 3 15
+ 1.443136 0 1 tcp 1000 ------- 4 3.0 5.0 3 15
r 1.444736 3 0 tcp 1000 ------- 4 3.0 5.0 4 16
+ 1.444736 0 1 tcp 1000 ------- 4 3.0 5.0 4 16
- 1.449536 0 1 tcp 1000 ------- 4 3.0 5.0 3 15
- 1.457536 0 1 tcp 1000 ------- 4 3.0 5.0 4 16
r 1.463983 3 0 ack 40 ------- 2 7.0 1.0 1 13
+ 1.463983 0 1 ack 40 ------- 2 7.0 1.0 1 13
- 1.465536 0 1 ack 40 ------- 2 7.0 1.0 1 13
r 1.499536 0 1 tcp 1000 ------- 4 3.0 5.0 2 14
+ 1.499536 1 2 tcp 1000 ------- 4 3.0 5.0 2 14
- 1.499536 1 2 tcp 1000 ------- 4 3.0 5.0 2 14
r 1.507536 0 1 tcp 1000 ------- 4 3.0 5.0 3 15
+ 1.507536 1 2 tcp 1000 ------- 4 3.0 5.0 3 15
- 1.507536 1 2 tcp 1000 ------- 4 3.0 5.0 3 15
r 1.515536 0 1 tcp 1000 ------- 4 3.0 5.0 4 16
+ 1.515536 1 2 tcp 1000 ------- 4 3.0 5.0 4 16
- 1.515536 1 2 tcp 1000 ------- 4 3.0 5.0 4 16
r 1.515856 0 1 ack 40 ------- 2 7.0 1.0 1 13
+ 1.515856 1 0 exp 1000 ------- 2 1.0 7.0 0 17
- 1.515856 1 0 exp 1000 ------- 2 1.0 7.0 0 17
+ 1.515856 1 0 exp 1000 ------- 2 1.0 7.0 0 18
+ 1.515856 1 0 exp 1000 ------- 2 1.0 7.0 0 19
- 1.523856 1 0 exp 1000 ------- 2 1.0 7.0 0 18
- 1.531856 1 0 exp 1000 ------- 2 1.0 7.0 0 19
r 1.5432 4 8 tcp 1500 ------- 1 0.0 8.0 1 10
+ 1.5432 8 4 ack 40 ------- 1 8.0 0.0 1 20
- 1.5432 8 4 ack 40 ------- 1 8.0 0.0 1 20
r 1.557536 1 2 tcp 1000 ------- 4 3.0 5.0 2 14
+ 1.557536 2 5 tcp 1000 ------- 4 3.0 5.0 2 14
- 1.557536 2 5 tcp 1000 ------- 4 3.0 5.0 2 14
r 1.565536 1 2 tcp 1000 ------- 4 3.0 5.0 3 15
+ 1.565536 2 5 tcp 1000 ------- 4 3.0 5.0 3 15
- 1.565536 2 5 tcp 1000 ------- 4 3.0 5.0 3 15
r 1.573536 1 2 tcp 1000 ------- 4 3.0 5.0 4 16
+ 1.573536 2 5 tcp 1000 ------- 4 3.0 5.0 4 16
- 1.573536 2 5 tcp 1000 ------- 4 3.0 5.0 4 16
r 1.573856 1 0 exp 1000 ------- 2 1.0 7.0 0 17
+ 1.573856 0 3 exp 1000 ------- 2 1.0 7.0 0 17
- 1.573856 0 3 exp 1000 ------- 2 1.0 7.0 0 17
r 1.581856 1 0 exp 1000 ------- 2 1.0 7.0 0 18
+ 1.581856 0 3 exp 1000 ------- 2 1.0 7.0 0 18
- 1.581856 0 3 exp 1000 ------- 2 1.0 7.0 0 18
r 1.588662 4 6 exp 1000 ------- 3 2.0 6.0 0 12
+ 1.588662 6 4 ack 40 ------- 3 6.0 2.0 1 21
- 1.588662 6 4 ack 40 ------- 3 6.0 2.0 1 21
r 1.589856 1 0 exp 1000 ------- 2 1.0 7.0 0 19
+ 1.589856 0 3 exp 1000 ------- 2 1.0 7.0 0 19
- 1.589856 0 3 exp 1000 ------- 2 1.0 7.0 0 19
r 1.659136 2 5 tcp 1000 ------- 4 3.0 5.0 2 14
+ 1.659136 5 2 ack 40 ------- 4 5.0 3.0 2 22
- 1.659136 5 2 ack 40 ------- 4 5.0 3.0 2 22
r 1.667136 2 5 tcp 1000 ------- 4 3.0 5.0 3 15
+ 1.667136 5 2 ack 40 ------- 4 5.0 3.0 3 23
- 1.667136 5 2 ack 40 ------- 4 5.0 3.0 3 23
r 1.675136 2 5 tcp 1000 ------- 4 3.0 5.0 4 16
+ 1.675136 5 2 ack 40 ------- 4 5.0 3.0 4 24
- 1.675136 5 2 ack 40 ------- 4 5.0 3.0 4 24
r 1.675456 0 3 exp 1000 ------- 2 1.0 7.0 0 17
+ 1.675456 3 6 exp 1000 ------- 2 1.0 7.0 0 17
- 1.675456 3 6 exp 1000 ------- 2 1.0 7.0 0 17
r 1.683456 0 3 exp 1000 ------- 2 1.0 7.0 0 18
+ 1.683456 3 6 exp 1000 ------- 2 1.0 7.0 0 18
- 1.683456 3 6 exp 1000 ------- 2 1.0 7.0 0 18
r 1.691456 0 3 exp 1000 ------- 2 1.0 7.0 0 19
+ 1.691456 3 6 exp 1000 ------- 2 1.0 7.0 0 19
- 1.691456 3 6 exp 1000 ------- 2 1.0 7.0 0 19
r 1.7448 8 4 ack 40 ------- 1 8.0 0.0 1 20
+ 1.7448 4 0 ack 40 ------- 1 8.0 0.0 1 20
- 1.7448 4 0 ack 40 ------- 1 8.0 0.0 1 20
r 1.7592 5 2 ack 40 ------- 4 5.0 3.0 2 22
+ 1.7592 2 1 ack 40 ------- 4 5.0 3.0 2 22
- 1.7592 2 1 ack 40 ------- 4 5.0 3.0 2 22
r 1.7672 5 2 ack 40 ------- 4 5.0 3.0 3 23
+ 1.7672 2 1 ack 40 ------- 4 5.0 3.0 3 23
- 1.7672 2 1 ack 40 ------- 4 5.0 3.0 3 23
r 1.7752 5 2 ack 40 ------- 4 5.0 3.0 4 24
+ 1.7752 2 1 ack 40 ------- 4 5.0 3.0 4 24
- 1.7752 2 1 ack 40 ------- 4 5.0 3.0 4 24
r 1.777056 3 6 exp 1000 ------- 2 1.0 7.0 0 17
+ 1.777056 6 7 exp 1000 ------- 2 1.0 7.0 0 17
- 1.777056 6 7 exp 1000 ------- 2 1.0 7.0 0 17
r 1.785056 3 6 exp 1000 ------- 2 1.0 7.0 0 18
+ 1.785056 6 7 exp 1000 ------- 2 1.0 7.0 0 18
- 1.785056 6 7 exp 1000 ------- 2 1.0 7.0 0 18
r 1.790262 6 4 ack 40 ------- 3 6.0 2.0 1 21
+ 1.790262 4 2 ack 40 ------- 3 6.0 2.0 1 21
- 1.790262 4 2 ack 40 ------- 3 6.0 2.0 1 21
r 1.793056 3 6 exp 1000 ------- 2 1.0 7.0 0 19
+ 1.793056 6 7 exp 1000 ------- 2 1.0 7.0 0 19
- 1.793056 6 7 exp 1000 ------- 2 1.0 7.0 0 19
r 1.80952 2 1 ack 40 ------- 4 5.0 3.0 2 22
+ 1.80952 1 0 ack 40 ------- 4 5.0 3.0 2 22
- 1.80952 1 0 ack 40 ------- 4 5.0 3.0 2 22
r 1.81752 2 1 ack 40 ------- 4 5.0 3.0 3 23
+ 1.81752 1 0 ack 40 ------- 4 5.0 3.0 3 23
- 1.81752 1 0 ack 40 ------- 4 5.0 3.0 3 23
r 1.82552 2 1 ack 40 ------- 4 5.0 3.0 4 24
+ 1.82552 1 0 ack 40 ------- 4 5.0 3.0 4 24
- 1.82552 1 0 ack 40 ------- 4 5.0 3.0 4 24
r 1.835056 6 7 exp 1000 ------- 2 1.0 7.0 0 17
+ 1.835056 7 6 ack 40 ------- 2 7.0 1.0 2 25
- 1.835056 7 6 ack 40 ------- 2 7.0 1.0 2 25
r 1.843056 6 7 exp 1000 ------- 2 1.0 7.0 0 18
+ 1.843056 7 6 ack 40 ------- 2 7.0 1.0 3 26
- 1.843056 7 6 ack 40 ------- 2 7.0 1.0 3 26
r 1.851056 6 7 exp 1000 ------- 2 1.0 7.0 0 19
+ 1.851056 7 6 ack 40 ------- 2 7.0 1.0 4 27
- 1.851056 7 6 ack 40 ------- 2 7.0 1.0 4 27
r 1.85984 1 0 ack 40 ------- 4 5.0 3.0 2 22
+ 1.85984 0 3 ack 40 ------- 4 5.0 3.0 2 22
- 1.85984 0 3 ack 40 ------- 4 5.0 3.0 2 22
r 1.86784 1 0 ack 40 ------- 4 5.0 3.0 3 23
+ 1.86784 0 3 ack 40 ------- 4 5.0 3.0 3 23
- 1.86784 0 3 ack 40 ------- 4 5.0 3.0 3 23
r 1.87584 1 0 ack 40 ------- 4 5.0 3.0 4 24
+ 1.87584 0 3 ack 40 ------- 4 5.0 3.0 4 24
- 1.87584 0 3 ack 40 ------- 4 5.0 3.0 4 24
r 1.885376 7 6 ack 40 ------- 2 7.0 1.0 2 25
+ 1.885376 6 3 ack 40 ------- 2 7.0 1.0 2 25
- 1.885376 6 3 ack 40 ------- 2 7.0 1.0 2 25
r 1.893376 7 6 ack 40 ------- 2 7.0 1.0 3 26
+ 1.893376 6 3 ack 40 ------- 2 7.0 1.0 3 26
- 1.893376 6 3 ack 40 ------- 2 7.0 1.0 3 26
r 1.901376 7 6 ack 40 ------- 2 7.0 1.0 4 27
+ 1.901376 6 3 ack 40 ------- 2 7.0 1.0 4 27
- 1.901376 6 3 ack 40 ------- 2 7.0 1.0 4 27
r 1.9464 4 0 ack 40 ------- 1 8.0 0.0 1 20
+ 1.9464 0 4 tcp 1500 ------- 1 0.0 8.0 2 28
- 1.9464 0 4 tcp 1500 ------- 1 0.0 8.0 2 28
+ 1.9464 0 4 tcp 1500 ------- 1 0.0 8.0 3 29
+ 1.9464 0 4 tcp 1500 ------- 1 0.0 8.0 4 30
r 1.959904 0 3 ack 40 ------- 4 5.0 3.0 2 22
+ 1.959904 3 0 tcp 1000 ------- 4 3.0 5.0 5 31
- 1.959904 3 0 tcp 1000 ------- 4 3.0 5.0 5 31
r 1.967904 0 3 ack 40 ------- 4 5.0 3.0 3 23
+ 1.967904 3 0 tcp 1000 ------- 4 3.0 5.0 6 32
- 1.967904 3 0 tcp 1000 ------- 4 3.0 5.0 6 32
r 1.975904 0 3 ack 40 ------- 4 5.0 3.0 4 24
+ 1.975904 3 0 tcp 1000 ------- 4 3.0 5.0 7 33
- 1.975904 3 0 tcp 1000 ------- 4 3.0 5.0 7 33
r 1.98544 6 3 ack 40 ------- 2 7.0 1.0 2 25
+ 1.98544 3 0 ack 40 ------- 2 7.0 1.0 2 25
- 1.98544 3 0 ack 40 ------- 2 7.0 1.0 2 25
r 1.991862 4 2 ack 40 ------- 3 6.0 2.0 1 21
+ 1.991862 2 4 exp 1000 ------- 3 2.0 6.0 0 34
- 1.991862 2 4 exp 1000 ------- 3 2.0 6.0 0 34
+ 1.991862 2 4 exp 1000 ------- 3 2.0 6.0 0 35
+ 1.991862 2 4 exp 1000 ------- 3 2.0 6.0 0 36
r 1.99344 6 3 ack 40 ------- 2 7.0 1.0 3 26
+ 1.99344 3 0 ack 40 ------- 2 7.0 1.0 3 26
- 1.99344 3 0 ack 40 ------- 2 7.0 1.0 3 26
r 2.00144 6 3 ack 40 ------- 2 7.0 1.0 4 27
+ 2.00144 3 0 ack 40 ------- 2 7.0 1.0 4 27
- 2.00144 3 0 ack 40 ------- 2 7.0 1.0 4 27
- 2.0064 0 4 tcp 1500 ------- 1 0.0 8.0 3 29
- 2.031862 2 4 exp 1000 ------- 3 2.0 6.0 0 35
r 2.061504 3 0 tcp 1000 ------- 4 3.0 5.0 5 31
+ 2.061504 0 1 tcp 1000 ------- 4 3.0 5.0 5 31
- 2.061504 0 1 tcp 1000 ------- 4 3.0 5.0 5 31
- 2.0664 0 4 tcp 1500 ------- 1 0.0 8.0 4 30
r 2.069504 3 0 tcp 1000 ------- 4 3.0 5.0 6 32
+ 2.069504 0 1 tcp 1000 ------- 4 3.0 5.0 6 32
- 2.069504 0 1 tcp 1000 ------- 4 3.0 5.0 6 32
- 2.071862 2 4 exp 1000 ------- 3 2.0 6.0 0 36
r 2.077504 3 0 tcp 1000 ------- 4 3.0 5.0 7 33
+ 2.077504 0 1 tcp 1000 ------- 4 3.0 5.0 7 33
- 2.077504 0 1 tcp 1000 ------- 4 3.0 5.0 7 33
r 2.085504 3 0 ack 40 ------- 2 7.0 1.0 2 25
+ 2.085504 0 1 ack 40 ------- 2 7.0 1.0 2 25
- 2.085504 0 1 ack 40 ------- 2 7.0 1.0 2 25
r 2.093504 3 0 ack 40 ------- 2 7.0 1.0 3 26
+ 2.093504 0 1 ack 40 ------- 2 7.0 1.0 3 26
- 2.093504 0 1 ack 40 ------- 2 7.0 1.0 3 26
r 2.101504 3 0 ack 40 ------- 2 7.0 1.0 4 27
+ 2.101504 0 1 ack 40 ------- 2 7.0 1.0 4 27
- 2.101504 0 1 ack 40 ------- 2 7.0 1.0 4 27
r 2.119504 0 1 tcp 1000 ------- 4 3.0 5.0 5 31
+ 2.119504 1 2 tcp 1000 ------- 4 3.0 5.0 5 31
- 2.119504 1 2 tcp 1000 ------- 4 3.0 5.0 5 31
r 2.127504 0 1 tcp 1000 ------- 4 3.0 5.0 6 32
+ 2.127504 1 2 tcp 1000 ------- 4 3.0 5.0 6 32
- 2.127504 1 2 tcp 1000 ------- 4 3.0 5.0 6 32
r 2.135504 0 1 tcp 1000 ------- 4 3.0 5.0 7 33
+ 2.135504 1 2 tcp 1000 ------- 4 3.0 5.0 7 33
- 2.135504 1 2 tcp 1000 ------- 4 3.0 5.0 7 33
r 2.135824 0 1 ack 40 ------- 2 7.0 1.0 2 25
+ 2.135824 1 0 exp 1000 ------- 2 1.0 7.0 0 37
- 2.135824 1 0 exp 1000 ------- 2 1.0 7.0 0 37
r 2.143824 0 1 ack 40 ------- 2 7.0 1.0 3 26
+ 2.143824 1 0 exp 1000 ------- 2 1.0 7.0 0 38
- 2.143824 1 0 exp 1000 ------- 2 1.0 7.0 0 38
r 2.151824 0 1 ack 40 ------- 2 7.0 1.0 4 27
+ 2.151824 1 0 exp 1000 ------- 2 1.0 7.0 0 39
- 2.151824 1 0 exp 1000 ------- 2 1.0 7.0 0 39
r 2.177504 1 2 tcp 1000 ------- 4 3.0 5.0 5 31
+ 2.177504 2 5 tcp 1000 ------- 4 3.0 5.0 5 31
- 2.177504 2 5 tcp 1000 ------- 4 3.0 5.0 5 31
r 2.185504 1 2 tcp 1000 ------- 4 3.0 5.0 6 32
+ 2.185504 2 5 tcp 1000 ------- 4 3.0 5.0 6 32
- 2.185504 2 5 tcp 1000 ------- 4 3.0 5.0 6 32
r 2.193504 1 2 tcp 1000 ------- 4 3.0 5.0 7 33
+ 2.193504 2 5 tcp 1000 ------- 4 3.0 5.0 7 33
- 2.193504 2 5 tcp 1000 ------- 4 3.0 5.0 7 33
r 2.193824 1 0 exp 1000 ------- 2 1.0 7.0 0 37
+ 2.193824 0 3 exp 1000 ------- 2 1.0 7.0 0 37
- 2.193824 0 3 exp 1000 ------- 2 1.0 7.0 0 37
r 2.201824 1 0 exp 1000 ------- 2 1.0 7.0 0 38
+ 2.201824 0 3 exp 1000 ------- 2 1.0 7.0 0 38
- 2.201824 0 3 exp 1000 ------- 2 1.0 7.0 0 38
r 2.2064 0 4 tcp 1500 ------- 1 0.0 8.0 2 28
+ 2.2064 4 8 tcp 1500 ------- 1 0.0 8.0 2 28
- 2.2064 4 8 tcp 1500 ------- 1 0.0 8.0 2 28
r 2.209824 1 0 exp 1000 ------- 2 1.0 7.0 0 39
+ 2.209824 0 3 exp 1000 ------- 2 1.0 7.0 0 39
- 2.209824 0 3 exp 1000 ------- 2 1.0 7.0 0 39
r 2.231862 2 4 exp 1000 ------- 3 2.0 6.0 0 34
+ 2.231862 4 6 exp 1000 ------- 3 2.0 6.0 0 34
- 2.231862 4 6 exp 1000 ------- 3 2.0 6.0 0 34
r 2.2664 0 4 tcp 1500 ------- 1 0.0 8.0 3 29
+ 2.2664 4 8 tcp 1500 ------- 1 0.0 8.0 3 29
- 2.2664 4 8 tcp 1500 ------- 1 0.0 8.0 3 29
r 2.271862 2 4 exp 1000 ------- 3 2.0 6.0 0 35
+ 2.271862 4 6 exp 1000 ------- 3 2.0 6.0 0 35
- 2.271862 4 6 exp 1000 ------- 3 2.0 6.0 0 35
r 2.279104 2 5 tcp 1000 ------- 4 3.0 5.0 5 31
+ 2.279104 5 2 ack 40 ------- 4 5.0 3.0 5 40
- 2.279104 5 2 ack 40 ------- 4 5.0 3.0 5 40
r 2.287104 2 5 tcp 1000 ------- 4 3.0 5.0 6 32
+ 2.287104 5 2 ack 40 ------- 4 5.0 3.0 6 41
- 2.287104 5 2 ack 40 ------- 4 5.0 3.0 6 41
r 2.295104 2 5 tcp 1000 ------- 4 3.0 5.0 7 33
+ 2.295104 5 2 ack 40 ------- 4 5.0 3.0 7 42
- 2.295104 5 2 ack 40 ------- 4 5.0 3.0 7 42
r 2.295424 0 3 exp 1000 ------- 2 1.0 7.0 0 37
+ 2.295424 3 6 exp 1000 ------- 2 1.0 7.0 0 37
- 2.295424 3 6 exp 1000 ------- 2 1.0 7.0 0 37
r 2.303424 0 3 exp 1000 ------- 2 1.0 7.0 0 38
+ 2.303424 3 6 exp 1000 ------- 2 1.0 7.0 0 38
- 2.303424 3 6 exp 1000 ------- 2 1.0 7.0 0 38
r 2.311424 0 3 exp 1000 ------- 2 1.0 7.0 0 39
+ 2.311424 3 6 exp 1000 ------- 2 1.0 7.0 0 39
- 2.311424 3 6 exp 1000 ------- 2 1.0 7.0 0 39
r 2.311862 2 4 exp 1000 ------- 3 2.0 6.0 0 36
+ 2.311862 4 6 exp 1000 ------- 3 2.0 6.0 0 36
- 2.311862 4 6 exp 1000 ------- 3 2.0 6.0 0 36
r 2.3264 0 4 tcp 1500 ------- 1 0.0 8.0 4 30
+ 2.3264 4 8 tcp 1500 ------- 1 0.0 8.0 4 30
- 2.3264 4 8 tcp 1500 ------- 1 0.0 8.0 4 30
r 2.379168 5 2 ack 40 ------- 4 5.0 3.0 5 40
+ 2.379168 2 1 ack 40 ------- 4 5.0 3.0 5 40
- 2.379168 2 1 ack 40 ------- 4 5.0 3.0 5 40
r 2.387168 5 2 ack 40 ------- 4 5.0 3.0 6 41
+ 2.387168 2 1 ack 40 ------- 4 5.0 3.0 6 41
- 2.387168 2 1 ack 40 ------- 4 5.0 3.0 6 41
r 2.395168 5 2 ack 40 ------- 4 5.0 3.0 7 42
+ 2.395168 2 1 ack 40 ------- 4 5.0 3.0 7 42
- 2.395168 2 1 ack 40 ------- 4 5.0 3.0 7 42
r 2.397024 3 6 exp 1000 ------- 2 1.0 7.0 0 37
+ 2.397024 6 7 exp 1000 ------- 2 1.0 7.0 0 37
- 2.397024 6 7 exp 1000 ------- 2 1.0 7.0 0 37
r 2.405024 3 6 exp 1000 ------- 2 1.0 7.0 0 38
+ 2.405024 6 7 exp 1000 ------- 2 1.0 7.0 0 38
- 2.405024 6 7 exp 1000 ------- 2 1.0 7.0 0 38
r 2.413024 3 6 exp 1000 ------- 2 1.0 7.0 0 39
+ 2.413024 6 7 exp 1000 ------- 2 1.0 7.0 0 39
- 2.413024 6 7 exp 1000 ------- 2 1.0 7.0 0 39
r 2.429488 2 1 ack 40 ------- 4 5.0 3.0 5 40
+ 2.429488 1 0 ack 40 ------- 4 5.0 3.0 5 40
- 2.429488 1 0 ack 40 ------- 4 5.0 3.0 5 40
r 2.437488 2 1 ack 40 ------- 4 5.0 3.0 6 41
+ 2.437488 1 0 ack 40 ------- 4 5.0 3.0 6 41
- 2.437488 1 0 ack 40 ------- 4 5.0 3.0 6 41
r 2.445488 2 1 ack 40 ------- 4 5.0 3.0 7 42
+ 2.445488 1 0 ack 40 ------- 4 5.0 3.0 7 42
- 2.445488 1 0 ack 40 ------- 4 5.0 3.0 7 42
r 2.455024 6 7 exp 1000 ------- 2 1.0 7.0 0 37
+ 2.455024 7 6 ack 40 ------- 2 7.0 1.0 5 43
- 2.455024 7 6 ack 40 ------- 2 7.0 1.0 5 43
r 2.463024 6 7 exp 1000 ------- 2 1.0 7.0 0 38
+ 2.463024 7 6 ack 40 ------- 2 7.0 1.0 6 44
- 2.463024 7 6 ack 40 ------- 2 7.0 1.0 6 44
r 2.4664 4 8 tcp 1500 ------- 1 0.0 8.0 2 28
+ 2.4664 8 4 ack 40 ------- 1 8.0 0.0 2 45
- 2.4664 8 4 ack 40 ------- 1 8.0 0.0 2 45
r 2.471024 6 7 exp 1000 ------- 2 1.0 7.0 0 39
+ 2.471024 7 6 ack 40 ------- 2 7.0 1.0 7 46
- 2.471024 7 6 ack 40 ------- 2 7.0 1.0 7 46
r 2.471862 4 6 exp 1000 ------- 3 2.0 6.0 0 34
+ 2.471862 6 4 ack 40 ------- 3 6.0 2.0 2 47
- 2.471862 6 4 ack 40 ------- 3 6.0 2.0 2 47
r 2.479808 1 0 ack 40 ------- 4 5.0 3.0 5 40
+ 2.479808 0 3 ack 40 ------- 4 5.0 3.0 5 40
- 2.479808 0 3 ack 40 ------- 4 5.0 3.0 5 40
r 2.487808 1 0 ack 40 ------- 4 5.0 3.0 6 41
+ 2.487808 0 3 ack 40 ------- 4 5.0 3.0 6 41
- 2.487808 0 3 ack 40 ------- 4 5.0 3.0 6 41
r 2.495808 1 0 ack 40 ------- 4 5.0 3.0 7 42
+ 2.495808 0 3 ack 40 ------- 4 5.0 3.0 7 42
- 2.495808 0 3 ack 40 ------- 4 5.0 3.0 7 42
r 2.505344 7 6 ack 40 ------- 2 7.0 1.0 5 43
+ 2.505344 6 3 ack 40 ------- 2 7.0 1.0 5 43
- 2.505344 6 3 ack 40 ------- 2 7.0 1.0 5 43
r 2.511862 4 6 exp 1000 ------- 3 2.0 6.0 0 35
+ 2.511862 6 4 ack 40 ------- 3 6.0 2.0 3 48
- 2.511862 6 4 ack 40 ------- 3 6.0 2.0 3 48
r 2.513344 7 6 ack 40 ------- 2 7.0 1.0 6 44
+ 2.513344 6 3 ack 40 ------- 2 7.0 1.0 6 44
- 2.513344 6 3 ack 40 ------- 2 7.0 1.0 6 44
r 2.521344 7 6 ack 40 ------- 2 7.0 1.0 7 46
+ 2.521344 6 3 ack 40 ------- 2 7.0 1.0 7 46
- 2.521344 6 3 ack 40 ------- 2 7.0 1.0 7 46
r 2.5264 4 8 tcp 1500 ------- 1 0.0 8.0 3 29
+ 2.5264 8 4 ack 40 ------- 1 8.0 0.0 3 49
- 2.5264 8 4 ack 40 ------- 1 8.0 0.0 3 49
r 2.551862 4 6 exp 1000 ------- 3 2.0 6.0 0 36
+ 2.551862 6 4 ack 40 ------- 3 6.0 2.0 4 50
- 2.551862 6 4 ack 40 ------- 3 6.0 2.0 4 50
r 2.579872 0 3 ack 40 ------- 4 5.0 3.0 5 40
+ 2.579872 3 0 tcp 1000 ------- 4 3.0 5.0 8 51
- 2.579872 3 0 tcp 1000 ------- 4 3.0 5.0 8 51
+ 2.579872 3 0 tcp 1000 ------- 4 3.0 5.0 9 52
- 2.581472 3 0 tcp 1000 ------- 4 3.0 5.0 9 52
r 2.5864 4 8 tcp 1500 ------- 1 0.0 8.0 4 30
+ 2.5864 8 4 ack 40 ------- 1 8.0 0.0 4 53
- 2.5864 8 4 ack 40 ------- 1 8.0 0.0 4 53
r 2.587872 0 3 ack 40 ------- 4 5.0 3.0 6 41
+ 2.587872 3 0 tcp 1000 ------- 4 3.0 5.0 10 54
- 2.587872 3 0 tcp 1000 ------- 4 3.0 5.0 10 54
+ 2.587872 3 0 tcp 1000 ------- 4 3.0 5.0 11 55
- 2.589472 3 0 tcp 1000 ------- 4 3.0 5.0 11 55
r 2.595872 0 3 ack 40 ------- 4 5.0 3.0 7 42
+ 2.595872 3 0 tcp 1000 ------- 4 3.0 5.0 12 56
- 2.595872 3 0 tcp 1000 ------- 4 3.0 5.0 12 56
+ 2.595872 3 0 tcp 1000 ------- 4 3.0 5.0 13 57
- 2.597472 3 0 tcp 1000 ------- 4 3.0 5.0 13 57
r 2.605408 6 3 ack 40 ------- 2 7.0 1.0 5 43
+ 2.605408 3 0 ack 40 ------- 2 7.0 1.0 5 43
- 2.605408 3 0 ack 40 ------- 2 7.0 1.0 5 43
r 2.613408 6 3 ack 40 ------- 2 7.0 1.0 6 44
+ 2.613408 3 0 ack 40 ------- 2 7.0 1.0 6 44
- 2.613408 3 0 ack 40 ------- 2 7.0 1.0 6 44
r 2.621408 6 3 ack 40 ------- 2 7.0 1.0 7 46
+ 2.621408 3 0 ack 40 ------- 2 7.0 1.0 7 46
- 2.621408 3 0 ack 40 ------- 2 7.0 1.0 7 46
r 2.668 8 4 ack 40 ------- 1 8.0 0.0 2 45
+ 2.668 4 0 ack 40 ------- 1 8.0 0.0 2 45
- 2.668 4 0 ack 40 ------- 1 8.0 0.0 2 45
r 2.673462 6 4 ack 40 ------- 3 6.0 2.0 2 47
+ 2.673462 4 2 ack 40 ------- 3 6.0 2.0 2 47
- 2.673462 4 2 ack 40 ------- 3 6.0 2.0 2 47
r 2.681472 3 0 tcp 1000 ------- 4 3.0 5.0 8 51
+ 2.681472 0 1 tcp 1000 ------- 4 3.0 5.0 8 51
- 2.681472 0 1 tcp 1000 ------- 4 3.0 5.0 8 51
r 2.683072 3 0 tcp 1000 ------- 4 3.0 5.0 9 52
+ 2.683072 0 1 tcp 1000 ------- 4 3.0 5.0 9 52
r 2.689472 3 0 tcp 1000 ------- 4 3.0 5.0 10 54
+ 2.689472 0 1 tcp 1000 ------- 4 3.0 5.0 10 54
- 2.689472 0 1 tcp 1000 ------- 4 3.0 5.0 9 52
r 2.691072 3 0 tcp 1000 ------- 4 3.0 5.0 11 55
+ 2.691072 0 1 tcp 1000 ------- 4 3.0 5.0 11 55
r 2.697472 3 0 tcp 1000 ------- 4 3.0 5.0 12 56
+ 2.697472 0 1 tcp 1000 ------- 4 3.0 5.0 12 56
- 2.697472 0 1 tcp 1000 ------- 4 3.0 5.0 10 54
r 2.699072 3 0 tcp 1000 ------- 4 3.0 5.0 13 57
+ 2.699072 0 1 tcp 1000 ------- 4 3.0 5.0 13 57
r 2.705472 3 0 ack 40 ------- 2 7.0 1.0 5 43
+ 2.705472 0 1 ack 40 ------- 2 7.0 1.0 5 43
- 2.705472 0 1 tcp 1000 ------- 4 3.0 5.0 11 55
r 2.713462 6 4 ack 40 ------- 3 6.0 2.0 3 48
+ 2.713462 4 2 ack 40 ------- 3 6.0 2.0 3 48
- 2.713462 4 2 ack 40 ------- 3 6.0 2.0 3 48
r 2.713472 3 0 ack 40 ------- 2 7.0 1.0 6 44
+ 2.713472 0 1 ack 40 ------- 2 7.0 1.0 6 44
- 2.713472 0 1 tcp 1000 ------- 4 3.0 5.0 12 56
r 2.721472 3 0 ack 40 ------- 2 7.0 1.0 7 46
+ 2.721472 0 1 ack 40 ------- 2 7.0 1.0 7 46
- 2.721472 0 1 tcp 1000 ------- 4 3.0 5.0 13 57
r 2.728 8 4 ack 40 ------- 1 8.0 0.0 3 49
+ 2.728 4 0 ack 40 ------- 1 8.0 0.0 3 49
- 2.728 4 0 ack 40 ------- 1 8.0 0.0 3 49
- 2.729472 0 1 ack 40 ------- 2 7.0 1.0 5 43
- 2.729792 0 1 ack 40 ------- 2 7.0 1.0 6 44
- 2.730112 0 1 ack 40 ------- 2 7.0 1.0 7 46
r 2.739472 0 1 tcp 1000 ------- 4 3.0 5.0 8 51
+ 2.739472 1 2 tcp 1000 ------- 4 3.0 5.0 8 51
- 2.739472 1 2 tcp 1000 ------- 4 3.0 5.0 8 51
r 2.747472 0 1 tcp 1000 ------- 4 3.0 5.0 9 52
+ 2.747472 1 2 tcp 1000 ------- 4 3.0 5.0 9 52
- 2.747472 1 2 tcp 1000 ------- 4 3.0 5.0 9 52
r 2.753462 6 4 ack 40 ------- 3 6.0 2.0 4 50
+ 2.753462 4 2 ack 40 ------- 3 6.0 2.0 4 50
- 2.753462 4 2 ack 40 ------- 3 6.0 2.0 4 50
r 2.755472 0 1 tcp 1000 ------- 4 3.0 5.0 10 54
+ 2.755472 1 2 tcp 1000 ------- 4 3.0 5.0 10 54
- 2.755472 1 2 tcp 1000 ------- 4 3.0 5.0 10 54
r 2.763472 0 1 tcp 1000 ------- 4 3.0 5.0 11 55
+ 2.763472 1 2 tcp 1000 ------- 4 3.0 5.0 11 55
- 2.763472 1 2 tcp 1000 ------- 4 3.0 5.0 11 55
r 2.771472 0 1 tcp 1000 ------- 4 3.0 5.0 12 56
+ 2.771472 1 2 tcp 1000 ------- 4 3.0 5.0 12 56
- 2.771472 1 2 tcp 1000 ------- 4 3.0 5.0 12 56
r 2.779472 0 1 tcp 1000 ------- 4 3.0 5.0 13 57
+ 2.779472 1 2 tcp 1000 ------- 4 3.0 5.0 13 57
- 2.779472 1 2 tcp 1000 ------- 4 3.0 5.0 13 57
r 2.779792 0 1 ack 40 ------- 2 7.0 1.0 5 43
+ 2.779792 1 0 exp 1000 ------- 2 1.0 7.0 0 58
- 2.779792 1 0 exp 1000 ------- 2 1.0 7.0 0 58
+ 2.779792 1 0 exp 1000 ------- 2 1.0 7.0 0 59
r 2.780112 0 1 ack 40 ------- 2 7.0 1.0 6 44
+ 2.780112 1 0 exp 1000 ------- 2 1.0 7.0 0 60
+ 2.780112 1 0 exp 1000 ------- 2 1.0 7.0 0 61
r 2.780432 0 1 ack 40 ------- 2 7.0 1.0 7 46
+ 2.780432 1 0 exp 1000 ------- 2 1.0 7.0 0 62
+ 2.780432 1 0 exp 1000 ------- 2 1.0 7.0 0 63
- 2.787792 1 0 exp 1000 ------- 2 1.0 7.0 0 59
r 2.788 8 4 ack 40 ------- 1 8.0 0.0 4 53
+ 2.788 4 0 ack 40 ------- 1 8.0 0.0 4 53
- 2.788 4 0 ack 40 ------- 1 8.0 0.0 4 53
- 2.795792 1 0 exp 1000 ------- 2 1.0 7.0 0 60
r 2.797472 1 2 tcp 1000 ------- 4 3.0 5.0 8 51
+ 2.797472 2 5 tcp 1000 ------- 4 3.0 5.0 8 51
- 2.797472 2 5 tcp 1000 ------- 4 3.0 5.0 8 51
- 2.803792 1 0 exp 1000 ------- 2 1.0 7.0 0 61
r 2.805472 1 2 tcp 1000 ------- 4 3.0 5.0 9 52
+ 2.805472 2 5 tcp 1000 ------- 4 3.0 5.0 9 52
- 2.805472 2 5 tcp 1000 ------- 4 3.0 5.0 9 52
- 2.811792 1 0 exp 1000 ------- 2 1.0 7.0 0 62
r 2.813472 1 2 tcp 1000 ------- 4 3.0 5.0 10 54
+ 2.813472 2 5 tcp 1000 ------- 4 3.0 5.0 10 54
- 2.813472 2 5 tcp 1000 ------- 4 3.0 5.0 10 54
- 2.819792 1 0 exp 1000 ------- 2 1.0 7.0 0 63
r 2.821472 1 2 tcp 1000 ------- 4 3.0 5.0 11 55
+ 2.821472 2 5 tcp 1000 ------- 4 3.0 5.0 11 55
- 2.821472 2 5 tcp 1000 ------- 4 3.0 5.0 11 55
r 2.829472 1 2 tcp 1000 ------- 4 3.0 5.0 12 56
+ 2.829472 2 5 tcp 1000 ------- 4 3.0 5.0 12 56
- 2.829472 2 5 tcp 1000 ------- 4 3.0 5.0 12 56
r 2.837472 1 2 tcp 1000 ------- 4 3.0 5.0 13 57
+ 2.837472 2 5 tcp 1000 ------- 4 3.0 5.0 13 57
- 2.837472 2 5 tcp 1000 ------- 4 3.0 5.0 13 57
r 2.837792 1 0 exp 1000 ------- 2 1.0 7.0 0 58
+ 2.837792 0 3 exp 1000 ------- 2 1.0 7.0 0 58
- 2.837792 0 3 exp 1000 ------- 2 1.0 7.0 0 58
r 2.845792 1 0 exp 1000 ------- 2 1.0 7.0 0 59
+ 2.845792 0 3 exp 1000 ------- 2 1.0 7.0 0 59
- 2.845792 0 3 exp 1000 ------- 2 1.0 7.0 0 59
r 2.853792 1 0 exp 1000 ------- 2 1.0 7.0 0 60
+ 2.853792 0 3 exp 1000 ------- 2 1.0 7.0 0 60
- 2.853792 0 3 exp 1000 ------- 2 1.0 7.0 0 60
r 2.861792 1 0 exp 1000 ------- 2 1.0 7.0 0 61
+ 2.861792 0 3 exp 1000 ------- 2 1.0 7.0 0 61
- 2.861792 0 3 exp 1000 ------- 2 1.0 7.0 0 61
r 2.8696 4 0 ack 40 ------- 1 8.0 0.0 2 45
+ 2.8696 0 4 tcp 1500 ------- 1 0.0 8.0 5 64
- 2.8696 0 4 tcp 1500 ------- 1 0.0 8.0 5 64
r 2.869792 1 0 exp 1000 ------- 2 1.0 7.0 0 62
+ 2.869792 0 3 exp 1000 ------- 2 1.0 7.0 0 62
- 2.869792 0 3 exp 1000 ------- 2 1.0 7.0 0 62
r 2.875062 4 2 ack 40 ------- 3 6.0 2.0 2 47
+ 2.875062 2 4 exp 1000 ------- 3 2.0 6.0 0 65
- 2.875062 2 4 exp 1000 ------- 3 2.0 6.0 0 65
r 2.877792 1 0 exp 1000 ------- 2 1.0 7.0 0 63
+ 2.877792 0 3 exp 1000 ------- 2 1.0 7.0 0 63
- 2.877792 0 3 exp 1000 ------- 2 1.0 7.0 0 63
r 2.899072 2 5 tcp 1000 ------- 4 3.0 5.0 8 51
+ 2.899072 5 2 ack 40 ------- 4 5.0 3.0 8 66
- 2.899072 5 2 ack 40 ------- 4 5.0 3.0 8 66
r 2.907072 2 5 tcp 1000 ------- 4 3.0 5.0 9 52
+ 2.907072 5 2 ack 40 ------- 4 5.0 3.0 9 67
- 2.907072 5 2 ack 40 ------- 4 5.0 3.0 9 67
r 2.915062 4 2 ack 40 ------- 3 6.0 2.0 3 48
+ 2.915062 2 4 exp 1000 ------- 3 2.0 6.0 0 68
- 2.915062 2 4 exp 1000 ------- 3 2.0 6.0 0 68
r 2.915072 2 5 tcp 1000 ------- 4 3.0 5.0 10 54
+ 2.915072 5 2 ack 40 ------- 4 5.0 3.0 10 69
- 2.915072 5 2 ack 40 ------- 4 5.0 3.0 10 69
r 2.923072 2 5 tcp 1000 ------- 4 3.0 5.0 11 55
+ 2.923072 5 2 ack 40 ------- 4 5.0 3.0 11 70
- 2.923072 5 2 ack 40 ------- 4 5.0 3.0 11 70
r 2.9296 4 0 ack 40 ------- 1 8.0 0.0 3 49
+ 2.9296 0 4 tcp 1500 ------- 1 0.0 8.0 6 71
- 2.9296 0 4 tcp 1500 ------- 1 0.0 8.0 6 71
r 2.931072 2 5 tcp 1000 ------- 4 3.0 5.0 12 56
+ 2.931072 5 2 ack 40 ------- 4 5.0 3.0 12 72
- 2.931072 5 2 ack 40 ------- 4 5.0 3.0 12 72
r 2.939072 2 5 tcp 1000 ------- 4 3.0 5.0 13 57
+ 2.939072 5 2 ack 40 ------- 4 5.0 3.0 13 73
- 2.939072 5 2 ack 40 ------- 4 5.0 3.0 13 73
r 2.939392 0 3 exp 1000 ------- 2 1.0 7.0 0 58
+ 2.939392 3 6 exp 1000 ------- 2 1.0 7.0 0 58
- 2.939392 3 6 exp 1000 ------- 2 1.0 7.0 0 58
r 2.947392 0 3 exp 1000 ------- 2 1.0 7.0 0 59
+ 2.947392 3 6 exp 1000 ------- 2 1.0 7.0 0 59
- 2.947392 3 6 exp 1000 ------- 2 1.0 7.0 0 59
r 2.955062 4 2 ack 40 ------- 3 6.0 2.0 4 50
+ 2.955062 2 4 exp 1000 ------- 3 2.0 6.0 0 74
- 2.955062 2 4 exp 1000 ------- 3 2.0 6.0 0 74
r 2.955392 0 3 exp 1000 ------- 2 1.0 7.0 0 60
+ 2.955392 3 6 exp 1000 ------- 2 1.0 7.0 0 60
- 2.955392 3 6 exp 1000 ------- 2 1.0 7.0 0 60
r 2.963392 0 3 exp 1000 ------- 2 1.0 7.0 0 61
+ 2.963392 3 6 exp 1000 ------- 2 1.0 7.0 0 61
- 2.963392 3 6 exp 1000 ------- 2 1.0 7.0 0 61
r 2.971392 0 3 exp 1000 ------- 2 1.0 7.0 0 62
+ 2.971392 3 6 exp 1000 ------- 2 1.0 7.0 0 62
- 2.971392 3 6 exp 1000 ------- 2 1.0 7.0 0 62
r 2.979392 0 3 exp 1000 ------- 2 1.0 7.0 0 63
+ 2.979392 3 6 exp 1000 ------- 2 1.0 7.0 0 63
- 2.979392 3 6 exp 1000 ------- 2 1.0 7.0 0 63
r 2.9896 4 0 ack 40 ------- 1 8.0 0.0 4 53
+ 2.9896 0 4 tcp 1500 ------- 1 0.0 8.0 7 75
- 2.9896 0 4 tcp 1500 ------- 1 0.0 8.0 7 75
r 2.999136 5 2 ack 40 ------- 4 5.0 3.0 8 66
+ 2.999136 2 1 ack 40 ------- 4 5.0 3.0 8 66
- 2.999136 2 1 ack 40 ------- 4 5.0 3.0 8 66
r 3.007136 5 2 ack 40 ------- 4 5.0 3.0 9 67
+ 3.007136 2 1 ack 40 ------- 4 5.0 3.0 9 67
- 3.007136 2 1 ack 40 ------- 4 5.0 3.0 9 67
r 3.015136 5 2 ack 40 ------- 4 5.0 3.0 10 69