+ 0.1 0 1 tcp 1500 ------- 1 0.0 4.0 0 0
- 0.1 0 1 tcp 1500 ------- 1 0.0 4.0 0 0
+ 0.1 3 2 tcp 1000 ------- 4 3.0 7.0 0 1
- 0.1 3 2 tcp 1000 ------- 4 3.0 7.0 0 1
r 0.158 3 2 tcp 1000 ------- 4 3.0 7.0 0 1
+ 0.158 2 1 tcp 1000 ------- 4 3.0 7.0 0 1
- 0.158 2 1 tcp 1000 ------- 4 3.0 7.0 0 1
r 0.162 0 1 tcp 1500 ------- 1 0.0 4.0 0 0
+ 0.162 1 2 tcp 1500 ------- 1 0.0 4.0 0 0
- 0.162 1 2 tcp 1500 ------- 1 0.0 4.0 0 0
+ 0.225462 2 3 exp 1000 ------- 3 2.0 6.0 0 2
- 0.225462 2 3 exp 1000 ------- 3 2.0 6.0 0 2
+ 0.274367 1 2 exp 1000 ------- 2 1.0 5.0 0 3
- 0.274367 1 2 exp 1000 ------- 2 1.0 5.0 0 3
r 0.283462 2 3 exp 1000 ------- 3 2.0 6.0 0 2
+ 0.283462 3 4 exp 1000 ------- 3 2.0 6.0 0 2
- 0.283462 3 4 exp 1000 ------- 3 2.0 6.0 0 2
r 0.398 2 1 tcp 1000 ------- 4 3.0 7.0 0 1
+ 0.398 1 0 tcp 1000 ------- 4 3.0 7.0 0 1
- 0.398 1 0 tcp 1000 ------- 4 3.0 7.0 0 1
r 0.422 1 2 tcp 1500 ------- 1 0.0 4.0 0 0
+ 0.422 2 3 tcp 1500 ------- 1 0.0 4.0 0 0
- 0.422 2 3 tcp 1500 ------- 1 0.0 4.0 0 0
r 0.456 1 0 tcp 1000 ------- 4 3.0 7.0 0 1
+ 0.456 0 7 tcp 1000 ------- 4 3.0 7.0 0 1
- 0.456 0 7 tcp 1000 ------- 4 3.0 7.0 0 1
r 0.484 2 3 tcp 1500 ------- 1 0.0 4.0 0 0
+ 0.484 3 4 tcp 1500 ------- 1 0.0 4.0 0 0
- 0.484 3 4 tcp 1500 ------- 1 0.0 4.0 0 0
r 0.514367 1 2 exp 1000 ------- 2 1.0 5.0 0 3
+ 0.514367 2 3 exp 1000 ------- 2 1.0 5.0 0 3
- 0.514367 2 3 exp 1000 ------- 2 1.0 5.0 0 3
r 0.523462 3 4 exp 1000 ------- 3 2.0 6.0 0 2
+ 0.523462 4 5 exp 1000 ------- 3 2.0 6.0 0 2
- 0.523462 4 5 exp 1000 ------- 3 2.0 6.0 0 2
r 0.572367 2 3 exp 1000 ------- 2 1.0 5.0 0 3
+ 0.572367 3 4 exp 1000 ------- 2 1.0 5.0 0 3
- 0.572367 3 4 exp 1000 ------- 2 1.0 5.0 0 3
r 0.581462 4 5 exp 1000 ------- 3 2.0 6.0 0 2
+ 0.581462 5 6 exp 1000 ------- 3 2.0 6.0 0 2
- 0.581462 5 6 exp 1000 ------- 3 2.0 6.0 0 2
r 0.696 0 7 tcp 1000 ------- 4 3.0 7.0 0 1
+ 0.696 7 0 ack 40 ------- 4 7.0 3.0 0 4
- 0.696 7 0 ack 40 ------- 4 7.0 3.0 0 4
r 0.744 3 4 tcp 1500 ------- 1 0.0 4.0 0 0
+ 0.744 4 3 ack 40 ------- 1 4.0 0.0 0 5
- 0.744 4 3 ack 40 ------- 1 4.0 0.0 0 5
r 0.812367 3 4 exp 1000 ------- 2 1.0 5.0 0 3
+ 0.812367 4 5 exp 1000 ------- 2 1.0 5.0 0 3
- 0.812367 4 5 exp 1000 ------- 2 1.0 5.0 0 3
r 0.821462 5 6 exp 1000 ------- 3 2.0 6.0 0 2
+ 0.821462 6 7 ack 40 ------- 3 6.0 2.0 0 6
- 0.821462 6 7 ack 40 ------- 3 6.0 2.0 0 6
r 0.870367 4 5 exp 1000 ------- 2 1.0 5.0 0 3
+ 0.870367 5 6 ack 40 ------- 2 5.0 1.0 0 7
- 0.870367 5 6 ack 40 ------- 2 5.0 1.0 0 7
r 0.871782 6 7 ack 40 ------- 3 6.0 2.0 0 6
+ 0.871782 7 0 ack 40 ------- 3 6.0 2.0 0 6
- 0.871782 7 0 ack 40 ------- 3 6.0 2.0 0 6
r 0.8976 7 0 ack 40 ------- 4 7.0 3.0 0 4
+ 0.8976 0 1 ack 40 ------- 4 7.0 3.0 0 4
- 0.8976 0 1 ack 40 ------- 4 7.0 3.0 0 4
r 0.9456 4 3 ack 40 ------- 1 4.0 0.0 0 5
+ 0.9456 3 2 ack 40 ------- 1 4.0 0.0 0 5
- 0.9456 3 2 ack 40 ------- 1 4.0 0.0 0 5
r 0.94792 0 1 ack 40 ------- 4 7.0 3.0 0 4
+ 0.94792 1 2 ack 40 ------- 4 7.0 3.0 0 4
- 0.94792 1 2 ack 40 ------- 4 7.0 3.0 0 4
r 0.99592 3 2 ack 40 ------- 1 4.0 0.0 0 5
+ 0.99592 2 1 ack 40 ------- 1 4.0 0.0 0 5
- 0.99592 2 1 ack 40 ------- 1 4.0 0.0 0 5
r 1.071967 5 6 ack 40 ------- 2 5.0 1.0 0 7
+ 1.071967 6 7 ack 40 ------- 2 5.0 1.0 0 7
- 1.071967 6 7 ack 40 ------- 2 5.0 1.0 0 7
r 1.073382 7 0 ack 40 ------- 3 6.0 2.0 0 6
+ 1.073382 0 1 ack 40 ------- 3 6.0 2.0 0 6
- 1.073382 0 1 ack 40 ------- 3 6.0 2.0 0 6
r 1.122287 6 7 ack 40 ------- 2 5.0 1.0 0 7
+ 1.122287 7 0 ack 40 ------- 2 5.0 1.0 0 7
- 1.122287 7 0 ack 40 ------- 2 5.0 1.0 0 7
r 1.123702 0 1 ack 40 ------- 3 6.0 2.0 0 6
+ 1.123702 1 2 ack 40 ------- 3 6.0 2.0 0 6
- 1.123702 1 2 ack 40 ------- 3 6.0 2.0 0 6
r 1.14952 1 2 ack 40 ------- 4 7.0 3.0 0 4
+ 1.14952 2 3 ack 40 ------- 4 7.0 3.0 0 4
- 1.14952 2 3 ack 40 ------- 4 7.0 3.0 0 4
r 1.19752 2 1 ack 40 ------- 1 4.0 0.0 0 5
+ 1.19752 1 0 ack 40 ------- 1 4.0 0.0 0 5
- 1.19752 1 0 ack 40 ------- 1 4.0 0.0 0 5
r 1.19984 2 3 ack 40 ------- 4 7.0 3.0 0 4
+ 1.19984 3 2 tcp 1000 ------- 4 3.0 7.0 1 8
- 1.19984 3 2 tcp 1000 ------- 4 3.0 7.0 1 8
r 1.24784 1 0 ack 40 ------- 1 4.0 0.0 0 5
+ 1.24784 0 1 tcp 1500 ------- 1 0.0 4.0 1 9
- 1.24784 0 1 tcp 1500 ------- 1 0.0 4.0 1 9
r 1.25784 3 2 tcp 1000 ------- 4 3.0 7.0 1 8
+ 1.25784 2 1 tcp 1000 ------- 4 3.0 7.0 1 8
- 1.25784 2 1 tcp 1000 ------- 4 3.0 7.0 1 8
r 1.30984 0 1 tcp 1500 ------- 1 0.0 4.0 1 9
+ 1.30984 1 2 tcp 1500 ------- 1 0.0 4.0 1 9
- 1.30984 1 2 tcp 1500 ------- 1 0.0 4.0 1 9
r 1.323887 7 0 ack 40 ------- 2 5.0 1.0 0 7
+ 1.323887 0 1 ack 40 ------- 2 5.0 1.0 0 7
- 1.323887 0 1 ack 40 ------- 2 5.0 1.0 0 7
r 1.325302 1 2 ack 40 ------- 3 6.0 2.0 0 6
+ 1.325302 2 3 exp 1000 ------- 3 2.0 6.0 0 10
- 1.325302 2 3 exp 1000 ------- 3 2.0 6.0 0 10
r 1.374207 0 1 ack 40 ------- 2 5.0 1.0 0 7
+ 1.374207 1 2 exp 1000 ------- 2 1.0 5.0 0 11
- 1.374207 1 2 exp 1000 ------- 2 1.0 5.0 0 11
r 1.383302 2 3 exp 1000 ------- 3 2.0 6.0 0 10
+ 1.383302 3 4 exp 1000 ------- 3 2.0 6.0 0 10
- 1.383302 3 4 exp 1000 ------- 3 2.0 6.0 0 10
r 1.49784 2 1 tcp 1000 ------- 4 3.0 7.0 1 8
+ 1.49784 1 0 tcp 1000 ------- 4 3.0 7.0 1 8
- 1.49784 1 0 tcp 1000 ------- 4 3.0 7.0 1 8
r 1.55584 1 0 tcp 1000 ------- 4 3.0 7.0 1 8
+ 1.55584 0 7 tcp 1000 ------- 4 3.0 7.0 1 8
- 1.55584 0 7 tcp 1000 ------- 4 3.0 7.0 1 8
r 1.56984 1 2 tcp 1500 ------- 1 0.0 4.0 1 9
+ 1.56984 2 3 tcp 1500 ------- 1 0.0 4.0 1 9
- 1.56984 2 3 tcp 1500 ------- 1 0.0 4.0 1 9
r 1.614207 1 2 exp 1000 ------- 2 1.0 5.0 0 11
+ 1.614207 2 3 exp 1000 ------- 2 1.0 5.0 0 11
- 1.614207 2 3 exp 1000 ------- 2 1.0 5.0 0 11
r 1.623302 3 4 exp 1000 ------- 3 2.0 6.0 0 10
+ 1.623302 4 5 exp 1000 ------- 3 2.0 6.0 0 10
- 1.623302 4 5 exp 1000 ------- 3 2.0 6.0 0 10
r 1.63184 2 3 tcp 1500 ------- 1 0.0 4.0 1 9
+ 1.63184 3 4 tcp 1500 ------- 1 0.0 4.0 1 9
- 1.63184 3 4 tcp 1500 ------- 1 0.0 4.0 1 9
r 1.672207 2 3 exp 1000 ------- 2 1.0 5.0 0 11
+ 1.672207 3 4 exp 1000 ------- 2 1.0 5.0 0 11
r 1.681302 4 5 exp 1000 ------- 3 2.0 6.0 0 10
+ 1.681302 5 6 exp 1000 ------- 3 2.0 6.0 0 10
- 1.681302 5 6 exp 1000 ------- 3 2.0 6.0 0 10
- 1.69184 3 4 exp 1000 ------- 2 1.0 5.0 0 11
r 1.79584 0 7 tcp 1000 ------- 4 3.0 7.0 1 8
+ 1.79584 7 0 ack 40 ------- 4 7.0 3.0 1 12
- 1.79584 7 0 ack 40 ------- 4 7.0 3.0 1 12
r 1.89184 3 4 tcp 1500 ------- 1 0.0 4.0 1 9
+ 1.89184 4 3 ack 40 ------- 1 4.0 0.0 1 13
- 1.89184 4 3 ack 40 ------- 1 4.0 0.0 1 13
r 1.921302 5 6 exp 1000 ------- 3 2.0 6.0 0 10
+ 1.921302 6 7 ack 40 ------- 3 6.0 2.0 1 14
- 1.921302 6 7 ack 40 ------- 3 6.0 2.0 1 14
r 1.93184 3 4 exp 1000 ------- 2 1.0 5.0 0 11
+ 1.93184 4 5 exp 1000 ------- 2 1.0 5.0 0 11
- 1.93184 4 5 exp 1000 ------- 2 1.0 5.0 0 11
r 1.971622 6 7 ack 40 ------- 3 6.0 2.0 1 14
+ 1.971622 7 0 ack 40 ------- 3 6.0 2.0 1 14
- 1.971622 7 0 ack 40 ------- 3 6.0 2.0 1 14
r 1.98984 4 5 exp 1000 ------- 2 1.0 5.0 0 11
+ 1.98984 5 6 ack 40 ------- 2 5.0 1.0 1 15
- 1.98984 5 6 ack 40 ------- 2 5.0 1.0 1 15
r 1.99744 7 0 ack 40 ------- 4 7.0 3.0 1 12
+ 1.99744 0 1 ack 40 ------- 4 7.0 3.0 1 12
- 1.99744 0 1 ack 40 ------- 4 7.0 3.0 1 12
r 2.04776 0 1 ack 40 ------- 4 7.0 3.0 1 12
+ 2.04776 1 2 ack 40 ------- 4 7.0 3.0 1 12
- 2.04776 1 2 ack 40 ------- 4 7.0 3.0 1 12
r 2.09344 4 3 ack 40 ------- 1 4.0 0.0 1 13
+ 2.09344 3 2 ack 40 ------- 1 4.0 0.0 1 13
- 2.09344 3 2 ack 40 ------- 1 4.0 0.0 1 13
r 2.14376 3 2 ack 40 ------- 1 4.0 0.0 1 13
+ 2.14376 2 1 ack 40 ------- 1 4.0 0.0 1 13
- 2.14376 2 1 ack 40 ------- 1 4.0 0.0 1 13
r 2.173222 7 0 ack 40 ------- 3 6.0 2.0 1 14
+ 2.173222 0 1 ack 40 ------- 3 6.0 2.0 1 14
- 2.173222 0 1 ack 40 ------- 3 6.0 2.0 1 14
r 2.19144 5 6 ack 40 ------- 2 5.0 1.0 1 15
+ 2.19144 6 7 ack 40 ------- 2 5.0 1.0 1 15
- 2.19144 6 7 ack 40 ------- 2 5.0 1.0 1 15
r 2.223542 0 1 ack 40 ------- 3 6.0 2.0 1 14
+ 2.223542 1 2 ack 40 ------- 3 6.0 2.0 1 14
- 2.223542 1 2 ack 40 ------- 3 6.0 2.0 1 14
r 2.24176 6 7 ack 40 ------- 2 5.0 1.0 1 15
+ 2.24176 7 0 ack 40 ------- 2 5.0 1.0 1 15
- 2.24176 7 0 ack 40 ------- 2 5.0 1.0 1 15
r 2.24936 1 2 ack 40 ------- 4 7.0 3.0 1 12
+ 2.24936 2 3 ack 40 ------- 4 7.0 3.0 1 12
- 2.24936 2 3 ack 40 ------- 4 7.0 3.0 1 12
r 2.29968 2 3 ack 40 ------- 4 7.0 3.0 1 12
+ 2.29968 3 2 tcp 1000 ------- 4 3.0 7.0 2 16
- 2.29968 3 2 tcp 1000 ------- 4 3.0 7.0 2 16
+ 2.29968 3 2 tcp 1000 ------- 4 3.0 7.0 3 17
+ 2.29968 3 2 tcp 1000 ------- 4 3.0 7.0 4 18
- 2.30768 3 2 tcp 1000 ------- 4 3.0 7.0 3 17
- 2.31568 3 2 tcp 1000 ------- 4 3.0 7.0 4 18
r 2.34536 2 1 ack 40 ------- 1 4.0 0.0 1 13
+ 2.34536 1 0 ack 40 ------- 1 4.0 0.0 1 13
- 2.34536 1 0 ack 40 ------- 1 4.0 0.0 1 13
r 2.35768 3 2 tcp 1000 ------- 4 3.0 7.0 2 16
+ 2.35768 2 1 tcp 1000 ------- 4 3.0 7.0 2 16
- 2.35768 2 1 tcp 1000 ------- 4 3.0 7.0 2 16
r 2.36568 3 2 tcp 1000 ------- 4 3.0 7.0 3 17
+ 2.36568 2 1 tcp 1000 ------- 4 3.0 7.0 3 17
r 2.37368 3 2 tcp 1000 ------- 4 3.0 7.0 4 18
+ 2.37368 2 1 tcp 1000 ------- 4 3.0 7.0 4 18
r 2.39568 1 0 ack 40 ------- 1 4.0 0.0 1 13
+ 2.39568 0 1 tcp 1500 ------- 1 0.0 4.0 2 19
- 2.39568 0 1 tcp 1500 ------- 1 0.0 4.0 2 19
+ 2.39568 0 1 tcp 1500 ------- 1 0.0 4.0 3 20
+ 2.39568 0 1 tcp 1500 ------- 1 0.0 4.0 4 21
- 2.39768 2 1 tcp 1000 ------- 4 3.0 7.0 3 17
- 2.40768 0 1 tcp 1500 ------- 1 0.0 4.0 3 20
- 2.41968 0 1 tcp 1500 ------- 1 0.0 4.0 4 21
r 2.425142 1 2 ack 40 ------- 3 6.0 2.0 1 14
+ 2.425142 2 3 exp 1000 ------- 3 2.0 6.0 0 22
- 2.425142 2 3 exp 1000 ------- 3 2.0 6.0 0 22
+ 2.425142 2 3 exp 1000 ------- 3 2.0 6.0 0 23
+ 2.425142 2 3 exp 1000 ------- 3 2.0 6.0 0 24
- 2.433142 2 3 exp 1000 ------- 3 2.0 6.0 0 23
- 2.43768 2 1 tcp 1000 ------- 4 3.0 7.0 4 18
- 2.441142 2 3 exp 1000 ------- 3 2.0 6.0 0 24
r 2.44336 7 0 ack 40 ------- 2 5.0 1.0 1 15
+ 2.44336 0 1 ack 40 ------- 2 5.0 1.0 1 15
- 2.44336 0 1 ack 40 ------- 2 5.0 1.0 1 15
r 2.45768 0 1 tcp 1500 ------- 1 0.0 4.0 2 19
+ 2.45768 1 2 tcp 1500 ------- 1 0.0 4.0 2 19
- 2.45768 1 2 tcp 1500 ------- 1 0.0 4.0 2 19
r 2.46968 0 1 tcp 1500 ------- 1 0.0 4.0 3 20
+ 2.46968 1 2 tcp 1500 ------- 1 0.0 4.0 3 20
r 2.48168 0 1 tcp 1500 ------- 1 0.0 4.0 4 21
+ 2.48168 1 2 tcp 1500 ------- 1 0.0 4.0 4 21
r 2.483142 2 3 exp 1000 ------- 3 2.0 6.0 0 22
+ 2.483142 3 4 exp 1000 ------- 3 2.0 6.0 0 22
- 2.483142 3 4 exp 1000 ------- 3 2.0 6.0 0 22
r 2.491142 2 3 exp 1000 ------- 3 2.0 6.0 0 23
+ 2.491142 3 4 exp 1000 ------- 3 2.0 6.0 0 23
r 2.49368 0 1 ack 40 ------- 2 5.0 1.0 1 15
+ 2.49368 1 2 exp 1000 ------- 2 1.0 5.0 0 25
+ 2.49368 1 2 exp 1000 ------- 2 1.0 5.0 0 26
+ 2.49368 1 2 exp 1000 ------- 2 1.0 5.0 0 27
d 2.49368 1 2 exp 1000 ------- 2 1.0 5.0 0 27
r 2.499142 2 3 exp 1000 ------- 3 2.0 6.0 0 24
+ 2.499142 3 4 exp 1000 ------- 3 2.0 6.0 0 24
- 2.51768 1 2 tcp 1500 ------- 1 0.0 4.0 3 20
- 2.523142 3 4 exp 1000 ------- 3 2.0 6.0 0 23
- 2.563142 3 4 exp 1000 ------- 3 2.0 6.0 0 24
- 2.57768 1 2 tcp 1500 ------- 1 0.0 4.0 4 21
r 2.59768 2 1 tcp 1000 ------- 4 3.0 7.0 2 16
+ 2.59768 1 0 tcp 1000 ------- 4 3.0 7.0 2 16
- 2.59768 1 0 tcp 1000 ------- 4 3.0 7.0 2 16
r 2.63768 2 1 tcp 1000 ------- 4 3.0 7.0 3 17
+ 2.63768 1 0 tcp 1000 ------- 4 3.0 7.0 3 17
- 2.63768 1 0 tcp 1000 ------- 4 3.0 7.0 3 17
- 2.63768 1 2 exp 1000 ------- 2 1.0 5.0 0 25
r 2.65568 1 0 tcp 1000 ------- 4 3.0 7.0 2 16
+ 2.65568 0 7 tcp 1000 ------- 4 3.0 7.0 2 16
- 2.65568 0 7 tcp 1000 ------- 4 3.0 7.0 2 16
r 2.67768 2 1 tcp 1000 ------- 4 3.0 7.0 4 18
+ 2.67768 1 0 tcp 1000 ------- 4 3.0 7.0 4 18
- 2.67768 1 0 tcp 1000 ------- 4 3.0 7.0 4 18
- 2.67768 1 2 exp 1000 ------- 2 1.0 5.0 0 26
r 2.69568 1 0 tcp 1000 ------- 4 3.0 7.0 3 17
+ 2.69568 0 7 tcp 1000 ------- 4 3.0 7.0 3 17
- 2.69568 0 7 tcp 1000 ------- 4 3.0 7.0 3 17
r 2.71768 1 2 tcp 1500 ------- 1 0.0 4.0 2 19
+ 2.71768 2 3 tcp 1500 ------- 1 0.0 4.0 2 19
- 2.71768 2 3 tcp 1500 ------- 1 0.0 4.0 2 19
r 2.723142 3 4 exp 1000 ------- 3 2.0 6.0 0 22
+ 2.723142 4 5 exp 1000 ------- 3 2.0 6.0 0 22
- 2.723142 4 5 exp 1000 ------- 3 2.0 6.0 0 22
r 2.73568 1 0 tcp 1000 ------- 4 3.0 7.0 4 18
+ 2.73568 0 7 tcp 1000 ------- 4 3.0 7.0 4 18
- 2.73568 0 7 tcp 1000 ------- 4 3.0 7.0 4 18
r 2.763142 3 4 exp 1000 ------- 3 2.0 6.0 0 23
+ 2.763142 4 5 exp 1000 ------- 3 2.0 6.0 0 23
- 2.763142 4 5 exp 1000 ------- 3 2.0 6.0 0 23
r 2.77768 1 2 tcp 1500 ------- 1 0.0 4.0 3 20
+ 2.77768 2 3 tcp 1500 ------- 1 0.0 4.0 3 20
- 2.77768 2 3 tcp 1500 ------- 1 0.0 4.0 3 20
r 2.77968 2 3 tcp 1500 ------- 1 0.0 4.0 2 19
+ 2.77968 3 4 tcp 1500 ------- 1 0.0 4.0 2 19
- 2.77968 3 4 tcp 1500 ------- 1 0.0 4.0 2 19
r 2.781142 4 5 exp 1000 ------- 3 2.0 6.0 0 22
+ 2.781142 5 6 exp 1000 ------- 3 2.0 6.0 0 22
- 2.781142 5 6 exp 1000 ------- 3 2.0 6.0 0 22
r 2.803142 3 4 exp 1000 ------- 3 2.0 6.0 0 24
+ 2.803142 4 5 exp 1000 ------- 3 2.0 6.0 0 24
- 2.803142 4 5 exp 1000 ------- 3 2.0 6.0 0 24
r 2.821142 4 5 exp 1000 ------- 3 2.0 6.0 0 23
+ 2.821142 5 6 exp 1000 ------- 3 2.0 6.0 0 23
- 2.821142 5 6 exp 1000 ------- 3 2.0 6.0 0 23
r 2.83768 1 2 tcp 1500 ------- 1 0.0 4.0 4 21
+ 2.83768 2 3 tcp 1500 ------- 1 0.0 4.0 4 21
- 2.83768 2 3 tcp 1500 ------- 1 0.0 4.0 4 21
r 2.83968 2 3 tcp 1500 ------- 1 0.0 4.0 3 20
+ 2.83968 3 4 tcp 1500 ------- 1 0.0 4.0 3 20
- 2.83968 3 4 tcp 1500 ------- 1 0.0 4.0 3 20
r 2.861142 4 5 exp 1000 ------- 3 2.0 6.0 0 24
+ 2.861142 5 6 exp 1000 ------- 3 2.0 6.0 0 24
- 2.861142 5 6 exp 1000 ------- 3 2.0 6.0 0 24
r 2.87768 1 2 exp 1000 ------- 2 1.0 5.0 0 25
+ 2.87768 2 3 exp 1000 ------- 2 1.0 5.0 0 25
- 2.87768 2 3 exp 1000 ------- 2 1.0 5.0 0 25
r 2.89568 0 7 tcp 1000 ------- 4 3.0 7.0 2 16
+ 2.89568 7 0 ack 40 ------- 4 7.0 3.0 2 28
- 2.89568 7 0 ack 40 ------- 4 7.0 3.0 2 28
r 2.89968 2 3 tcp 1500 ------- 1 0.0 4.0 4 21
+ 2.89968 3 4 tcp 1500 ------- 1 0.0 4.0 4 21
- 2.89968 3 4 tcp 1500 ------- 1 0.0 4.0 4 21
r 2.91768 1 2 exp 1000 ------- 2 1.0 5.0 0 26
+ 2.91768 2 3 exp 1000 ------- 2 1.0 5.0 0 26
- 2.91768 2 3 exp 1000 ------- 2 1.0 5.0 0 26
r 2.93568 0 7 tcp 1000 ------- 4 3.0 7.0 3 17
+ 2.93568 7 0 ack 40 ------- 4 7.0 3.0 3 29
- 2.93568 7 0 ack 40 ------- 4 7.0 3.0 3 29
r 2.93568 2 3 exp 1000 ------- 2 1.0 5.0 0 25
+ 2.93568 3 4 exp 1000 ------- 2 1.0 5.0 0 25
- 2.95968 3 4 exp 1000 ------- 2 1.0 5.0 0 25
r 2.97568 0 7 tcp 1000 ------- 4 3.0 7.0 4 18
+ 2.97568 7 0 ack 40 ------- 4 7.0 3.0 4 30
- 2.97568 7 0 ack 40 ------- 4 7.0 3.0 4 30
r 2.97568 2 3 exp 1000 ------- 2 1.0 5.0 0 26
+ 2.97568 3 4 exp 1000 ------- 2 1.0 5.0 0 26
- 2.99968 3 4 exp 1000 ------- 2 1.0 5.0 0 26
r 3.021142 5 6 exp 1000 ------- 3 2.0 6.0 0 22
+ 3.021142 6 7 ack 40 ------- 3 6.0 2.0 2 31
- 3.021142 6 7 ack 40 ------- 3 6.0 2.0 2 31
r 3.03968 3 4 tcp 1500 ------- 1 0.0 4.0 2 19
+ 3.03968 4 3 ack 40 ------- 1 4.0 0.0 2 32
- 3.03968 4 3 ack 40 ------- 1 4.0 0.0 2 32
r 3.061142 5 6 exp 1000 ------- 3 2.0 6.0 0 23
+ 3.061142 6 7 ack 40 ------- 3 6.0 2.0 3 33
- 3.061142 6 7 ack 40 ------- 3 6.0 2.0 3 33
r 3.071462 6 7 ack 40 ------- 3 6.0 2.0 2 31
+ 3.071462 7 0 ack 40 ------- 3 6.0 2.0 2 31
- 3.071462 7 0 ack 40 ------- 3 6.0 2.0 2 31
r 3.09728 7 0 ack 40 ------- 4 7.0 3.0 2 28
+ 3.09728 0 1 ack 40 ------- 4 7.0 3.0 2 28
- 3.09728 0 1 ack 40 ------- 4 7.0 3.0 2 28
r 3.09968 3 4 tcp 1500 ------- 1 0.0 4.0 3 20
+ 3.09968 4 3 ack 40 ------- 1 4.0 0.0 3 34
- 3.09968 4 3 ack 40 ------- 1 4.0 0.0 3 34
r 3.101142 5 6 exp 1000 ------- 3 2.0 6.0 0 24
+ 3.101142 6 7 ack 40 ------- 3 6.0 2.0 4 35
- 3.101142 6 7 ack 40 ------- 3 6.0 2.0 4 35
r 3.111462 6 7 ack 40 ------- 3 6.0 2.0 3 33
+ 3.111462 7 0 ack 40 ------- 3 6.0 2.0 3 33
- 3.111462 7 0 ack 40 ------- 3 6.0 2.0 3 33
r 3.13728 7 0 ack 40 ------- 4 7.0 3.0 3 29
+ 3.13728 0 1 ack 40 ------- 4 7.0 3.0 3 29
- 3.13728 0 1 ack 40 ------- 4 7.0 3.0 3 29
r 3.1476 0 1 ack 40 ------- 4 7.0 3.0 2 28
+ 3.1476 1 2 ack 40 ------- 4 7.0 3.0 2 28
- 3.1476 1 2 ack 40 ------- 4 7.0 3.0 2 28
r 3.151462 6 7 ack 40 ------- 3 6.0 2.0 4 35
+ 3.151462 7 0 ack 40 ------- 3 6.0 2.0 4 35
- 3.151462 7 0 ack 40 ------- 3 6.0 2.0 4 35
r 3.15968 3 4 tcp 1500 ------- 1 0.0 4.0 4 21
+ 3.15968 4 3 ack 40 ------- 1 4.0 0.0 4 36
- 3.15968 4 3 ack 40 ------- 1 4.0 0.0 4 36
r 3.17728 7 0 ack 40 ------- 4 7.0 3.0 4 30
+ 3.17728 0 1 ack 40 ------- 4 7.0 3.0 4 30
- 3.17728 0 1 ack 40 ------- 4 7.0 3.0 4 30
r 3.1876 0 1 ack 40 ------- 4 7.0 3.0 3 29
+ 3.1876 1 2 ack 40 ------- 4 7.0 3.0 3 29
- 3.1876 1 2 ack 40 ------- 4 7.0 3.0 3 29
r 3.19968 3 4 exp 1000 ------- 2 1.0 5.0 0 25
+ 3.19968 4 5 exp 1000 ------- 2 1.0 5.0 0 25
- 3.19968 4 5 exp 1000 ------- 2 1.0 5.0 0 25
r 3.2276 0 1 ack 40 ------- 4 7.0 3.0 4 30
+ 3.2276 1 2 ack 40 ------- 4 7.0 3.0 4 30
- 3.2276 1 2 ack 40 ------- 4 7.0 3.0 4 30
r 3.23968 3 4 exp 1000 ------- 2 1.0 5.0 0 26
+ 3.23968 4 5 exp 1000 ------- 2 1.0 5.0 0 26
- 3.23968 4 5 exp 1000 ------- 2 1.0 5.0 0 26
r 3.24128 4 3 ack 40 ------- 1 4.0 0.0 2 32
+ 3.24128 3 2 ack 40 ------- 1 4.0 0.0 2 32
- 3.24128 3 2 ack 40 ------- 1 4.0 0.0 2 32
r 3.25768 4 5 exp 1000 ------- 2 1.0 5.0 0 25
+ 3.25768 5 6 ack 40 ------- 2 5.0 1.0 2 37
- 3.25768 5 6 ack 40 ------- 2 5.0 1.0 2 37
r 3.273062 7 0 ack 40 ------- 3 6.0 2.0 2 31
+ 3.273062 0 1 ack 40 ------- 3 6.0 2.0 2 31
- 3.273062 0 1 ack 40 ------- 3 6.0 2.0 2 31
r 3.2916 3 2 ack 40 ------- 1 4.0 0.0 2 32
+ 3.2916 2 1 ack 40 ------- 1 4.0 0.0 2 32
- 3.2916 2 1 ack 40 ------- 1 4.0 0.0 2 32
r 3.29768 4 5 exp 1000 ------- 2 1.0 5.0 0 26
+ 3.29768 5 6 ack 40 ------- 2 5.0 1.0 3 38
- 3.29768 5 6 ack 40 ------- 2 5.0 1.0 3 38
r 3.30128 4 3 ack 40 ------- 1 4.0 0.0 3 34
+ 3.30128 3 2 ack 40 ------- 1 4.0 0.0 3 34
- 3.30128 3 2 ack 40 ------- 1 4.0 0.0 3 34
r 3.313062 7 0 ack 40 ------- 3 6.0 2.0 3 33
+ 3.313062 0 1 ack 40 ------- 3 6.0 2.0 3 33
- 3.313062 0 1 ack 40 ------- 3 6.0 2.0 3 33
r 3.323382 0 1 ack 40 ------- 3 6.0 2.0 2 31
+ 3.323382 1 2 ack 40 ------- 3 6.0 2.0 2 31
- 3.323382 1 2 ack 40 ------- 3 6.0 2.0 2 31
r 3.3492 1 2 ack 40 ------- 4 7.0 3.0 2 28
+ 3.3492 2 3 ack 40 ------- 4 7.0 3.0 2 28
- 3.3492 2 3 ack 40 ------- 4 7.0 3.0 2 28
r 3.3516 3 2 ack 40 ------- 1 4.0 0.0 3 34
+ 3.3516 2 1 ack 40 ------- 1 4.0 0.0 3 34
- 3.3516 2 1 ack 40 ------- 1 4.0 0.0 3 34
r 3.353062 7 0 ack 40 ------- 3 6.0 2.0 4 35
+ 3.353062 0 1 ack 40 ------- 3 6.0 2.0 4 35
- 3.353062 0 1 ack 40 ------- 3 6.0 2.0 4 35
r 3.36128 4 3 ack 40 ------- 1 4.0 0.0 4 36
+ 3.36128 3 2 ack 40 ------- 1 4.0 0.0 4 36
- 3.36128 3 2 ack 40 ------- 1 4.0 0.0 4 36
r 3.363382 0 1 ack 40 ------- 3 6.0 2.0 3 33
+ 3.363382 1 2 ack 40 ------- 3 6.0 2.0 3 33
- 3.363382 1 2 ack 40 ------- 3 6.0 2.0 3 33
r 3.3892 1 2 ack 40 ------- 4 7.0 3.0 3 29
+ 3.3892 2 3 ack 40 ------- 4 7.0 3.0 3 29
- 3.3892 2 3 ack 40 ------- 4 7.0 3.0 3 29
r 3.39952 2 3 ack 40 ------- 4 7.0 3.0 2 28
+ 3.39952 3 2 tcp 1000 ------- 4 3.0 7.0 5 39
- 3.39952 3 2 tcp 1000 ------- 4 3.0 7.0 5 39
r 3.403382 0 1 ack 40 ------- 3 6.0 2.0 4 35
+ 3.403382 1 2 ack 40 ------- 3 6.0 2.0 4 35
- 3.403382 1 2 ack 40 ------- 3 6.0 2.0 4 35
r 3.4116 3 2 ack 40 ------- 1 4.0 0.0 4 36
+ 3.4116 2 1 ack 40 ------- 1 4.0 0.0 4 36
- 3.4116 2 1 ack 40 ------- 1 4.0 0.0 4 36
r 3.4292 1 2 ack 40 ------- 4 7.0 3.0 4 30
+ 3.4292 2 3 ack 40 ------- 4 7.0 3.0 4 30
- 3.4292 2 3 ack 40 ------- 4 7.0 3.0 4 30
r 3.43952 2 3 ack 40 ------- 4 7.0 3.0 3 29
+ 3.43952 3 2 tcp 1000 ------- 4 3.0 7.0 6 40
- 3.43952 3 2 tcp 1000 ------- 4 3.0 7.0 6 40
r 3.45752 3 2 tcp 1000 ------- 4 3.0 7.0 5 39
+ 3.45752 2 1 tcp 1000 ------- 4 3.0 7.0 5 39
- 3.45752 2 1 tcp 1000 ------- 4 3.0 7.0 5 39
r 3.45928 5 6 ack 40 ------- 2 5.0 1.0 2 37
+ 3.45928 6 7 ack 40 ------- 2 5.0 1.0 2 37
- 3.45928 6 7 ack 40 ------- 2 5.0 1.0 2 37
r 3.47952 2 3 ack 40 ------- 4 7.0 3.0 4 30
+ 3.47952 3 2 tcp 1000 ------- 4 3.0 7.0 7 41
- 3.47952 3 2 tcp 1000 ------- 4 3.0 7.0 7 41
r 3.4932 2 1 ack 40 ------- 1 4.0 0.0 2 32
+ 3.4932 1 0 ack 40 ------- 1 4.0 0.0 2 32
- 3.4932 1 0 ack 40 ------- 1 4.0 0.0 2 32
r 3.49752 3 2 tcp 1000 ------- 4 3.0 7.0 6 40
+ 3.49752 2 1 tcp 1000 ------- 4 3.0 7.0 6 40
- 3.49752 2 1 tcp 1000 ------- 4 3.0 7.0 6 40
r 3.49928 5 6 ack 40 ------- 2 5.0 1.0 3 38
+ 3.49928 6 7 ack 40 ------- 2 5.0 1.0 3 38
- 3.49928 6 7 ack 40 ------- 2 5.0 1.0 3 38
r 3.5096 6 7 ack 40 ------- 2 5.0 1.0 2 37
+ 3.5096 7 0 ack 40 ------- 2 5.0 1.0 2 37
- 3.5096 7 0 ack 40 ------- 2 5.0 1.0 2 37
r 3.524982 1 2 ack 40 ------- 3 6.0 2.0 2 31
+ 3.524982 2 3 exp 1000 ------- 3 2.0 6.0 0 42
- 3.524982 2 3 exp 1000 ------- 3 2.0 6.0 0 42
r 3.53752 3 2 tcp 1000 ------- 4 3.0 7.0 7 41
+ 3.53752 2 1 tcp 1000 ------- 4 3.0 7.0 7 41
- 3.53752 2 1 tcp 1000 ------- 4 3.0 7.0 7 41
r 3.54352 1 0 ack 40 ------- 1 4.0 0.0 2 32
+ 3.54352 0 1 tcp 1500 ------- 1 0.0 4.0 5 43
- 3.54352 0 1 tcp 1500 ------- 1 0.0 4.0 5 43
r 3.5496 6 7 ack 40 ------- 2 5.0 1.0 3 38
+ 3.5496 7 0 ack 40 ------- 2 5.0 1.0 3 38
- 3.5496 7 0 ack 40 ------- 2 5.0 1.0 3 38
r 3.5532 2 1 ack 40 ------- 1 4.0 0.0 3 34
+ 3.5532 1 0 ack 40 ------- 1 4.0 0.0 3 34
- 3.5532 1 0 ack 40 ------- 1 4.0 0.0 3 34
r 3.564982 1 2 ack 40 ------- 3 6.0 2.0 3 33
+ 3.564982 2 3 exp 1000 ------- 3 2.0 6.0 0 44
- 3.564982 2 3 exp 1000 ------- 3 2.0 6.0 0 44
r 3.582982 2 3 exp 1000 ------- 3 2.0 6.0 0 42
+ 3.582982 3 4 exp 1000 ------- 3 2.0 6.0 0 42
- 3.582982 3 4 exp 1000 ------- 3 2.0 6.0 0 42
r 3.60352 1 0 ack 40 ------- 1 4.0 0.0 3 34
+ 3.60352 0 1 tcp 1500 ------- 1 0.0 4.0 6 45
- 3.60352 0 1 tcp 1500 ------- 1 0.0 4.0 6 45
r 3.604982 1 2 ack 40 ------- 3 6.0 2.0 4 35
+ 3.604982 2 3 exp 1000 ------- 3 2.0 6.0 0 46
- 3.604982 2 3 exp 1000 ------- 3 2.0 6.0 0 46
r 3.60552 0 1 tcp 1500 ------- 1 0.0 4.0 5 43
+ 3.60552 1 2 tcp 1500 ------- 1 0.0 4.0 5 43
- 3.60552 1 2 tcp 1500 ------- 1 0.0 4.0 5 43
r 3.6132 2 1 ack 40 ------- 1 4.0 0.0 4 36
+ 3.6132 1 0 ack 40 ------- 1 4.0 0.0 4 36
- 3.6132 1 0 ack 40 ------- 1 4.0 0.0 4 36
r 3.622982 2 3 exp 1000 ------- 3 2.0 6.0 0 44
+ 3.622982 3 4 exp 1000 ------- 3 2.0 6.0 0 44
- 3.622982 3 4 exp 1000 ------- 3 2.0 6.0 0 44
r 3.662982 2 3 exp 1000 ------- 3 2.0 6.0 0 46
+ 3.662982 3 4 exp 1000 ------- 3 2.0 6.0 0 46
- 3.662982 3 4 exp 1000 ------- 3 2.0 6.0 0 46
r 3.66352 1 0 ack 40 ------- 1 4.0 0.0 4 36
+ 3.66352 0 1 tcp 1500 ------- 1 0.0 4.0 7 47
- 3.66352 0 1 tcp 1500 ------- 1 0.0 4.0 7 47
r 3.66552 0 1 tcp 1500 ------- 1 0.0 4.0 6 45
+ 3.66552 1 2 tcp 1500 ------- 1 0.0 4.0 6 45
- 3.66552 1 2 tcp 1500 ------- 1 0.0 4.0 6 45
r 3.69752 2 1 tcp 1000 ------- 4 3.0 7.0 5 39
+ 3.69752 1 0 tcp 1000 ------- 4 3.0 7.0 5 39
- 3.69752 1 0 tcp 1000 ------- 4 3.0 7.0 5 39
r 3.7112 7 0 ack 40 ------- 2 5.0 1.0 2 37
+ 3.7112 0 1 ack 40 ------- 2 5.0 1.0 2 37
- 3.7112 0 1 ack 40 ------- 2 5.0 1.0 2 37
r 3.72552 0 1 tcp 1500 ------- 1 0.0 4.0 7 47
+ 3.72552 1 2 tcp 1500 ------- 1 0.0 4.0 7 47
- 3.72552 1 2 tcp 1500 ------- 1 0.0 4.0 7 47
r 3.73752 2 1 tcp 1000 ------- 4 3.0 7.0 6 40
+ 3.73752 1 0 tcp 1000 ------- 4 3.0 7.0 6 40
- 3.73752 1 0 tcp 1000 ------- 4 3.0 7.0 6 40
r 3.7512 7 0 ack 40 ------- 2 5.0 1.0 3 38
+ 3.7512 0 1 ack 40 ------- 2 5.0 1.0 3 38
- 3.7512 0 1 ack 40 ------- 2 5.0 1.0 3 38
r 3.75552 1 0 tcp 1000 ------- 4 3.0 7.0 5 39
+ 3.75552 0 7 tcp 1000 ------- 4 3.0 7.0 5 39
- 3.75552 0 7 tcp 1000 ------- 4 3.0 7.0 5 39
r 3.76152 0 1 ack 40 ------- 2 5.0 1.0 2 37
+ 3.76152 1 2 exp 1000 ------- 2 1.0 5.0 0 48
r 3.77752 2 1 tcp 1000 ------- 4 3.0 7.0 7 41
+ 3.77752 1 0 tcp 1000 ------- 4 3.0 7.0 7 41
- 3.77752 1 0 tcp 1000 ------- 4 3.0 7.0 7 41
- 3.78552 1 2 exp 1000 ------- 2 1.0 5.0 0 48
r 3.79552 1 0 tcp 1000 ------- 4 3.0 7.0 6 40
+ 3.79552 0 7 tcp 1000 ------- 4 3.0 7.0 6 40
- 3.79552 0 7 tcp 1000 ------- 4 3.0 7.0 6 40
r 3.80152 0 1 ack 40 ------- 2 5.0 1.0 3 38
+ 3.80152 1 2 exp 1000 ------- 2 1.0 5.0 0 49
r 3.822982 3 4 exp 1000 ------- 3 2.0 6.0 0 42
+ 3.822982 4 5 exp 1000 ------- 3 2.0 6.0 0 42
- 3.822982 4 5 exp 1000 ------- 3 2.0 6.0 0 42
- 3.82552 1 2 exp 1000 ------- 2 1.0 5.0 0 49
r 3.83552 1 0 tcp 1000 ------- 4 3.0 7.0 7 41
+ 3.83552 0 7 tcp 1000 ------- 4 3.0 7.0 7 41
- 3.83552 0 7 tcp 1000 ------- 4 3.0 7.0 7 41
r 3.862982 3 4 exp 1000 ------- 3 2.0 6.0 0 44
+ 3.862982 4 5 exp 1000 ------- 3 2.0 6.0 0 44
- 3.862982 4 5 exp 1000 ------- 3 2.0 6.0 0 44
r 3.86552 1 2 tcp 1500 ------- 1 0.0 4.0 5 43
+ 3.86552 2 3 tcp 1500 ------- 1 0.0 4.0 5 43
- 3.86552 2 3 tcp 1500 ------- 1 0.0 4.0 5 43
r 3.880982 4 5 exp 1000 ------- 3 2.0 6.0 0 42
+ 3.880982 5 6 exp 1000 ------- 3 2.0 6.0 0 42
- 3.880982 5 6 exp 1000 ------- 3 2.0 6.0 0 42
r 3.902982 3 4 exp 1000 ------- 3 2.0 6.0 0 46
+ 3.902982 4 5 exp 1000 ------- 3 2.0 6.0 0 46
- 3.902982 4 5 exp 1000 ------- 3 2.0 6.0 0 46
r 3.920982 4 5 exp 1000 ------- 3 2.0 6.0 0 44
+ 3.920982 5 6 exp 1000 ------- 3 2.0 6.0 0 44
- 3.920982 5 6 exp 1000 ------- 3 2.0 6.0 0 44
r 3.92552 1 2 tcp 1500 ------- 1 0.0 4.0 6 45
+ 3.92552 2 3 tcp 1500 ------- 1 0.0 4.0 6 45
- 3.92552 2 3 tcp 1500 ------- 1 0.0 4.0 6 45
r 3.92752 2 3 tcp 1500 ------- 1 0.0 4.0 5 43
+ 3.92752 3 4 tcp 1500 ------- 1 0.0 4.0 5 43
- 3.92752 3 4 tcp 1500 ------- 1 0.0 4.0 5 43
r 3.960982 4 5 exp 1000 ------- 3 2.0 6.0 0 46
+ 3.960982 5 6 exp 1000 ------- 3 2.0 6.0 0 46
- 3.960982 5 6 exp 1000 ------- 3 2.0 6.0 0 46
r 3.98552 1 2 tcp 1500 ------- 1 0.0 4.0 7 47
+ 3.98552 2 3 tcp 1500 ------- 1 0.0 4.0 7 47
- 3.98552 2 3 tcp 1500 ------- 1 0.0 4.0 7 47
r 3.98752 2 3 tcp 1500 ------- 1 0.0 4.0 6 45
+ 3.98752 3 4 tcp 1500 ------- 1 0.0 4.0 6 45
- 3.98752 3 4 tcp 1500 ------- 1 0.0 4.0 6 45
r 3.99552 0 7 tcp 1000 ------- 4 3.0 7.0 5 39
+ 3.99552 7 0 ack 40 ------- 4 7.0 3.0 5 50
- 3.99552 7 0 ack 40 ------- 4 7.0 3.0 5 50
r 4.02552 1 2 exp 1000 ------- 2 1.0 5.0 0 48
+ 4.02552 2 3 exp 1000 ------- 2 1.0 5.0 0 48
- 4.02552 2 3 exp 1000 ------- 2 1.0 5.0 0 48
r 4.03552 0 7 tcp 1000 ------- 4 3.0 7.0 6 40
+ 4.03552 7 0 ack 40 ------- 4 7.0 3.0 6 51
- 4.03552 7 0 ack 40 ------- 4 7.0 3.0 6 51
r 4.04752 2 3 tcp 1500 ------- 1 0.0 4.0 7 47
+ 4.04752 3 4 tcp 1500 ------- 1 0.0 4.0 7 47
- 4.04752 3 4 tcp 1500 ------- 1 0.0 4.0 7 47
r 4.06552 1 2 exp 1000 ------- 2 1.0 5.0 0 49
+ 4.06552 2 3 exp 1000 ------- 2 1.0 5.0 0 49
- 4.06552 2 3 exp 1000 ------- 2 1.0 5.0 0 49
r 4.07552 0 7 tcp 1000 ------- 4 3.0 7.0 7 41
+ 4.07552 7 0 ack 40 ------- 4 7.0 3.0 7 52
- 4.07552 7 0 ack 40 ------- 4 7.0 3.0 7 52
r 4.08352 2 3 exp 1000 ------- 2 1.0 5.0 0 48
+ 4.08352 3 4 exp 1000 ------- 2 1.0 5.0 0 48
- 4.10752 3 4 exp 1000 ------- 2 1.0 5.0 0 48
r 4.120982 5 6 exp 1000 ------- 3 2.0 6.0 0 42
+ 4.120982 6 7 ack 40 ------- 3 6.0 2.0 5 53
- 4.120982 6 7 ack 40 ------- 3 6.0 2.0 5 53
r 4.12352 2 3 exp 1000 ------- 2 1.0 5.0 0 49
+ 4.12352 3 4 exp 1000 ------- 2 1.0 5.0 0 49
- 4.14752 3 4 exp 1000 ------- 2 1.0 5.0 0 49
r 4.160982 5 6 exp 1000 ------- 3 2.0 6.0 0 44
+ 4.160982 6 7 ack 40 ------- 3 6.0 2.0 6 54
- 4.160982 6 7 ack 40 ------- 3 6.0 2.0 6 54
r 4.171302 6 7 ack 40 ------- 3 6.0 2.0 5 53
+ 4.171302 7 0 ack 40 ------- 3 6.0 2.0 5 53
- 4.171302 7 0 ack 40 ------- 3 6.0 2.0 5 53
r 4.18752 3 4 tcp 1500 ------- 1 0.0 4.0 5 43
+ 4.18752 4 3 ack 40 ------- 1 4.0 0.0 5 55
- 4.18752 4 3 ack 40 ------- 1 4.0 0.0 5 55
r 4.19712 7 0 ack 40 ------- 4 7.0 3.0 5 50
+ 4.19712 0 1 ack 40 ------- 4 7.0 3.0 5 50
- 4.19712 0 1 ack 40 ------- 4 7.0 3.0 5 50
r 4.200982 5 6 exp 1000 ------- 3 2.0 6.0 0 46
+ 4.200982 6 7 ack 40 ------- 3 6.0 2.0 7 56
- 4.200982 6 7 ack 40 ------- 3 6.0 2.0 7 56
r 4.211302 6 7 ack 40 ------- 3 6.0 2.0 6 54
+ 4.211302 7 0 ack 40 ------- 3 6.0 2.0 6 54
- 4.211302 7 0 ack 40 ------- 3 6.0 2.0 6 54
r 4.23712 7 0 ack 40 ------- 4 7.0 3.0 6 51
+ 4.23712 0 1 ack 40 ------- 4 7.0 3.0 6 51
- 4.23712 0 1 ack 40 ------- 4 7.0 3.0 6 51
r 4.24744 0 1 ack 40 ------- 4 7.0 3.0 5 50
+ 4.24744 1 2 ack 40 ------- 4 7.0 3.0 5 50
- 4.24744 1 2 ack 40 ------- 4 7.0 3.0 5 50
r 4.24752 3 4 tcp 1500 ------- 1 0.0 4.0 6 45
+ 4.24752 4 3 ack 40 ------- 1 4.0 0.0 6 57
- 4.24752 4 3 ack 40 ------- 1 4.0 0.0 6 57
r 4.251302 6 7 ack 40 ------- 3 6.0 2.0 7 56
+ 4.251302 7 0 ack 40 ------- 3 6.0 2.0 7 56
- 4.251302 7 0 ack 40 ------- 3 6.0 2.0 7 56
r 4.27712 7 0 ack 40 ------- 4 7.0 3.0 7 52
+ 4.27712 0 1 ack 40 ------- 4 7.0 3.0 7 52
- 4.27712 0 1 ack 40 ------- 4 7.0 3.0 7 52
r 4.28744 0 1 ack 40 ------- 4 7.0 3.0 6 51
+ 4.28744 1 2 ack 40 ------- 4 7.0 3.0 6 51
- 4.28744 1 2 ack 40 ------- 4 7.0 3.0 6 51
r 4.30752 3 4 tcp 1500 ------- 1 0.0 4.0 7 47
+ 4.30752 4 3 ack 40 ------- 1 4.0 0.0 7 58
- 4.30752 4 3 ack 40 ------- 1 4.0 0.0 7 58
r 4.32744 0 1 ack 40 ------- 4 7.0 3.0 7 52
+ 4.32744 1 2 ack 40 ------- 4 7.0 3.0 7 52
- 4.32744 1 2 ack 40 ------- 4 7.0 3.0 7 52
r 4.34752 3 4 exp 1000 ------- 2 1.0 5.0 0 48
+ 4.34752 4 5 exp 1000 ------- 2 1.0 5.0 0 48
- 4.34752 4 5 exp 1000 ------- 2 1.0 5.0 0 48
r 4.372902 7 0 ack 40 ------- 3 6.0 2.0 5 53
+ 4.372902 0 1 ack 40 ------- 3 6.0 2.0 5 53
- 4.372902 0 1 ack 40 ------- 3 6.0 2.0 5 53
r 4.38752 3 4 exp 1000 ------- 2 1.0 5.0 0 49
+ 4.38752 4 5 exp 1000 ------- 2 1.0 5.0 0 49
- 4.38752 4 5 exp 1000 ------- 2 1.0 5.0 0 49
r 4.38912 4 3 ack 40 ------- 1 4.0 0.0 5 55
+ 4.38912 3 2 ack 40 ------- 1 4.0 0.0 5 55
- 4.38912 3 2 ack 40 ------- 1 4.0 0.0 5 55
r 4.40552 4 5 exp 1000 ------- 2 1.0 5.0 0 48
+ 4.40552 5 6 ack 40 ------- 2 5.0 1.0 3 59
- 4.40552 5 6 ack 40 ------- 2 5.0 1.0 3 59
r 4.412902 7 0 ack 40 ------- 3 6.0 2.0 6 54
+ 4.412902 0 1 ack 40 ------- 3 6.0 2.0 6 54
- 4.412902 0 1 ack 40 ------- 3 6.0 2.0 6 54
r 4.423222 0 1 ack 40 ------- 3 6.0 2.0 5 53
+ 4.423222 1 2 ack 40 ------- 3 6.0 2.0 5 53
- 4.423222 1 2 ack 40 ------- 3 6.0 2.0 5 53
r 4.43944 3 2 ack 40 ------- 1 4.0 0.0 5 55
+ 4.43944 2 1 ack 40 ------- 1 4.0 0.0 5 55
- 4.43944 2 1 ack 40 ------- 1 4.0 0.0 5 55
r 4.44552 4 5 exp 1000 ------- 2 1.0 5.0 0 49
+ 4.44552 5 6 ack 40 ------- 2 5.0 1.0 3 60
- 4.44552 5 6 ack 40 ------- 2 5.0 1.0 3 60
r 4.44904 1 2 ack 40 ------- 4 7.0 3.0 5 50
+ 4.44904 2 3 ack 40 ------- 4 7.0 3.0 5 50
- 4.44904 2 3 ack 40 ------- 4 7.0 3.0 5 50
r 4.44912 4 3 ack 40 ------- 1 4.0 0.0 6 57
+ 4.44912 3 2 ack 40 ------- 1 4.0 0.0 6 57
- 4.44912 3 2 ack 40 ------- 1 4.0 0.0 6 57
r 4.452902 7 0 ack 40 ------- 3 6.0 2.0 7 56
+ 4.452902 0 1 ack 40 ------- 3 6.0 2.0 7 56
- 4.452902 0 1 ack 40 ------- 3 6.0 2.0 7 56
r 4.463222 0 1 ack 40 ------- 3 6.0 2.0 6 54
+ 4.463222 1 2 ack 40 ------- 3 6.0 2.0 6 54