V -t * -v 1.0a5 -a 0
A -t * -n 1 -p 0 -o 0x7fffffff -c 30 -a 1
A -t * -h 1 -m 1073741823 -s 0
c -t * -i 4 -n Yellow
c -t * -i 1 -n Green
c -t * -i 2 -n Blue
c -t * -i 3 -n Red
n -t * -a 4 -s 4 -S UP -v circle -c green -i green
n -t * -a 0 -s 0 -S UP -v circle -c green -i green
n -t * -a 5 -s 5 -S UP -v circle -c blue -i blue
n -t * -a 1 -s 1 -S UP -v circle -c blue -i blue
n -t * -a 6 -s 6 -S UP -v circle -c red -i red
n -t * -a 2 -s 2 -S UP -v circle -c red -i red
n -t * -a 7 -s 7 -S UP -v circle -c yellow -i yellow
n -t * -a 3 -s 3 -S UP -v circle -c yellow -i yellow
l -t * -s 0 -d 1 -S UP -r 1000000 -D 0.050000000000000003 -c black -o right
l -t * -s 1 -d 2 -S UP -r 200000 -D 0.20000000000000001 -c black -o right-down
l -t * -s 2 -d 3 -S UP -r 1000000 -D 0.050000000000000003 -c black -o down
l -t * -s 3 -d 4 -S UP -r 200000 -D 0.20000000000000001 -c black -o left-down
l -t * -s 4 -d 5 -S UP -r 1000000 -D 0.050000000000000003 -c black -o left
l -t * -s 5 -d 6 -S UP -r 200000 -D 0.20000000000000001 -c black -o left-up
l -t * -s 6 -d 7 -S UP -r 1000000 -D 0.050000000000000003 -c black -o up
l -t * -s 7 -d 0 -S UP -r 200000 -D 0.20000000000000001 -c black -o right-up
+ -t 0.1 -s 0 -d 1 -p tcp -e 1500 -c 1 -i 0 -a 1 -x {0.0 4.0 0 ------- null}
- -t 0.1 -s 0 -d 1 -p tcp -e 1500 -c 1 -i 0 -a 1 -x {0.0 4.0 0 ------- null}
h -t 0.1 -s 0 -d 1 -p tcp -e 1500 -c 1 -i 0 -a 1 -x {0.0 4.0 -1 ------- null}
+ -t 0.1 -s 3 -d 2 -p tcp -e 1000 -c 4 -i 1 -a 4 -x {3.0 7.0 0 ------- null}
- -t 0.1 -s 3 -d 2 -p tcp -e 1000 -c 4 -i 1 -a 4 -x {3.0 7.0 0 ------- null}
h -t 0.1 -s 3 -d 2 -p tcp -e 1000 -c 4 -i 1 -a 4 -x {3.0 7.0 -1 ------- null}
r -t 0.158 -s 3 -d 2 -p tcp -e 1000 -c 4 -i 1 -a 4 -x {3.0 7.0 0 ------- null}
+ -t 0.158 -s 2 -d 1 -p tcp -e 1000 -c 4 -i 1 -a 4 -x {3.0 7.0 0 ------- null}
- -t 0.158 -s 2 -d 1 -p tcp -e 1000 -c 4 -i 1 -a 4 -x {3.0 7.0 0 ------- null}
h -t 0.158 -s 2 -d 1 -p tcp -e 1000 -c 4 -i 1 -a 4 -x {3.0 7.0 -1 ------- null}
r -t 0.162 -s 0 -d 1 -p tcp -e 1500 -c 1 -i 0 -a 1 -x {0.0 4.0 0 ------- null}
+ -t 0.162 -s 1 -d 2 -p tcp -e 1500 -c 1 -i 0 -a 1 -x {0.0 4.0 0 ------- null}
- -t 0.162 -s 1 -d 2 -p tcp -e 1500 -c 1 -i 0 -a 1 -x {0.0 4.0 0 ------- null}
h -t 0.162 -s 1 -d 2 -p tcp -e 1500 -c 1 -i 0 -a 1 -x {0.0 4.0 -1 ------- null}
+ -t 0.225462013838808 -s 2 -d 3 -p exp -e 1000 -c 3 -i 2 -a 3 -x {2.0 6.0 0 ------- null}
- -t 0.225462013838808 -s 2 -d 3 -p exp -e 1000 -c 3 -i 2 -a 3 -x {2.0 6.0 0 ------- null}
h -t 0.225462013838808 -s 2 -d 3 -p exp -e 1000 -c 3 -i 2 -a 3 -x {2.0 6.0 -1 ------- null}
+ -t 0.2743672170149 -s 1 -d 2 -p exp -e 1000 -c 2 -i 3 -a 2 -x {1.0 5.0 0 ------- null}
- -t 0.2743672170149 -s 1 -d 2 -p exp -e 1000 -c 2 -i 3 -a 2 -x {1.0 5.0 0 ------- null}
h -t 0.2743672170149 -s 1 -d 2 -p exp -e 1000 -c 2 -i 3 -a 2 -x {1.0 5.0 -1 ------- null}
r -t 0.283462013838808 -s 2 -d 3 -p exp -e 1000 -c 3 -i 2 -a 3 -x {2.0 6.0 0 ------- null}
+ -t 0.283462013838808 -s 3 -d 4 -p exp -e 1000 -c 3 -i 2 -a 3 -x {2.0 6.0 0 ------- null}
- -t 0.283462013838808 -s 3 -d 4 -p exp -e 1000 -c 3 -i 2 -a 3 -x {2.0 6.0 0 ------- null}
h -t 0.283462013838808 -s 3 -d 4 -p exp -e 1000 -c 3 -i 2 -a 3 -x {2.0 6.0 -1 ------- null}
r -t 0.398 -s 2 -d 1 -p tcp -e 1000 -c 4 -i 1 -a 4 -x {3.0 7.0 0 ------- null}
+ -t 0.398 -s 1 -d 0 -p tcp -e 1000 -c 4 -i 1 -a 4 -x {3.0 7.0 0 ------- null}
- -t 0.398 -s 1 -d 0 -p tcp -e 1000 -c 4 -i 1 -a 4 -x {3.0 7.0 0 ------- null}
h -t 0.398 -s 1 -d 0 -p tcp -e 1000 -c 4 -i 1 -a 4 -x {3.0 7.0 -1 ------- null}
r -t 0.422 -s 1 -d 2 -p tcp -e 1500 -c 1 -i 0 -a 1 -x {0.0 4.0 0 ------- null}
+ -t 0.422 -s 2 -d 3 -p tcp -e 1500 -c 1 -i 0 -a 1 -x {0.0 4.0 0 ------- null}
- -t 0.422 -s 2 -d 3 -p tcp -e 1500 -c 1 -i 0 -a 1 -x {0.0 4.0 0 ------- null}
h -t 0.422 -s 2 -d 3 -p tcp -e 1500 -c 1 -i 0 -a 1 -x {0.0 4.0 -1 ------- null}
r -t 0.456 -s 1 -d 0 -p tcp -e 1000 -c 4 -i 1 -a 4 -x {3.0 7.0 0 ------- null}
+ -t 0.456 -s 0 -d 7 -p tcp -e 1000 -c 4 -i 1 -a 4 -x {3.0 7.0 0 ------- null}
- -t 0.456 -s 0 -d 7 -p tcp -e 1000 -c 4 -i 1 -a 4 -x {3.0 7.0 0 ------- null}
h -t 0.456 -s 0 -d 7 -p tcp -e 1000 -c 4 -i 1 -a 4 -x {3.0 7.0 -1 ------- null}
r -t 0.484 -s 2 -d 3 -p tcp -e 1500 -c 1 -i 0 -a 1 -x {0.0 4.0 0 ------- null}
+ -t 0.484 -s 3 -d 4 -p tcp -e 1500 -c 1 -i 0 -a 1 -x {0.0 4.0 0 ------- null}
- -t 0.484 -s 3 -d 4 -p tcp -e 1500 -c 1 -i 0 -a 1 -x {0.0 4.0 0 ------- null}
h -t 0.484 -s 3 -d 4 -p tcp -e 1500 -c 1 -i 0 -a 1 -x {0.0 4.0 -1 ------- null}
r -t 0.5143672170149 -s 1 -d 2 -p exp -e 1000 -c 2 -i 3 -a 2 -x {1.0 5.0 0 ------- null}
+ -t 0.5143672170149 -s 2 -d 3 -p exp -e 1000 -c 2 -i 3 -a 2 -x {1.0 5.0 0 ------- null}
- -t 0.5143672170149 -s 2 -d 3 -p exp -e 1000 -c 2 -i 3 -a 2 -x {1.0 5.0 0 ------- null}
h -t 0.5143672170149 -s 2 -d 3 -p exp -e 1000 -c 2 -i 3 -a 2 -x {1.0 5.0 -1 ------- null}
r -t 0.523462013838808 -s 3 -d 4 -p exp -e 1000 -c 3 -i 2 -a 3 -x {2.0 6.0 0 ------- null}
+ -t 0.523462013838808 -s 4 -d 5 -p exp -e 1000 -c 3 -i 2 -a 3 -x {2.0 6.0 0 ------- null}
- -t 0.523462013838808 -s 4 -d 5 -p exp -e 1000 -c 3 -i 2 -a 3 -x {2.0 6.0 0 ------- null}
h -t 0.523462013838808 -s 4 -d 5 -p exp -e 1000 -c 3 -i 2 -a 3 -x {2.0 6.0 -1 ------- null}
r -t 0.5723672170149 -s 2 -d 3 -p exp -e 1000 -c 2 -i 3 -a 2 -x {1.0 5.0 0 ------- null}
+ -t 0.5723672170149 -s 3 -d 4 -p exp -e 1000 -c 2 -i 3 -a 2 -x {1.0 5.0 0 ------- null}
- -t 0.5723672170149 -s 3 -d 4 -p exp -e 1000 -c 2 -i 3 -a 2 -x {1.0 5.0 0 ------- null}
h -t 0.5723672170149 -s 3 -d 4 -p exp -e 1000 -c 2 -i 3 -a 2 -x {1.0 5.0 -1 ------- null}
r -t 0.581462013838808 -s 4 -d 5 -p exp -e 1000 -c 3 -i 2 -a 3 -x {2.0 6.0 0 ------- null}
+ -t 0.581462013838808 -s 5 -d 6 -p exp -e 1000 -c 3 -i 2 -a 3 -x {2.0 6.0 0 ------- null}
- -t 0.581462013838808 -s 5 -d 6 -p exp -e 1000 -c 3 -i 2 -a 3 -x {2.0 6.0 0 ------- null}
h -t 0.581462013838808 -s 5 -d 6 -p exp -e 1000 -c 3 -i 2 -a 3 -x {2.0 6.0 -1 ------- null}
r -t 0.696 -s 0 -d 7 -p tcp -e 1000 -c 4 -i 1 -a 4 -x {3.0 7.0 0 ------- null}
+ -t 0.696 -s 7 -d 0 -p ack -e 40 -c 4 -i 4 -a 4 -x {7.0 3.0 0 ------- null}
- -t 0.696 -s 7 -d 0 -p ack -e 40 -c 4 -i 4 -a 4 -x {7.0 3.0 0 ------- null}
h -t 0.696 -s 7 -d 0 -p ack -e 40 -c 4 -i 4 -a 4 -x {7.0 3.0 -1 ------- null}
r -t 0.744 -s 3 -d 4 -p tcp -e 1500 -c 1 -i 0 -a 1 -x {0.0 4.0 0 ------- null}
+ -t 0.744 -s 4 -d 3 -p ack -e 40 -c 1 -i 5 -a 1 -x {4.0 0.0 0 ------- null}
- -t 0.744 -s 4 -d 3 -p ack -e 40 -c 1 -i 5 -a 1 -x {4.0 0.0 0 ------- null}
h -t 0.744 -s 4 -d 3 -p ack -e 40 -c 1 -i 5 -a 1 -x {4.0 0.0 -1 ------- null}
r -t 0.8123672170149 -s 3 -d 4 -p exp -e 1000 -c 2 -i 3 -a 2 -x {1.0 5.0 0 ------- null}
+ -t 0.8123672170149 -s 4 -d 5 -p exp -e 1000 -c 2 -i 3 -a 2 -x {1.0 5.0 0 ------- null}
- -t 0.8123672170149 -s 4 -d 5 -p exp -e 1000 -c 2 -i 3 -a 2 -x {1.0 5.0 0 ------- null}
h -t 0.8123672170149 -s 4 -d 5 -p exp -e 1000 -c 2 -i 3 -a 2 -x {1.0 5.0 -1 ------- null}
r -t 0.821462013838808 -s 5 -d 6 -p exp -e 1000 -c 3 -i 2 -a 3 -x {2.0 6.0 0 ------- null}
+ -t 0.821462013838808 -s 6 -d 7 -p ack -e 40 -c 3 -i 6 -a 3 -x {6.0 2.0 0 ------- null}
- -t 0.821462013838808 -s 6 -d 7 -p ack -e 40 -c 3 -i 6 -a 3 -x {6.0 2.0 0 ------- null}
h -t 0.821462013838808 -s 6 -d 7 -p ack -e 40 -c 3 -i 6 -a 3 -x {6.0 2.0 -1 ------- null}
r -t 0.8703672170149 -s 4 -d 5 -p exp -e 1000 -c 2 -i 3 -a 2 -x {1.0 5.0 0 ------- null}
+ -t 0.8703672170149 -s 5 -d 6 -p ack -e 40 -c 2 -i 7 -a 2 -x {5.0 1.0 0 ------- null}
- -t 0.8703672170149 -s 5 -d 6 -p ack -e 40 -c 2 -i 7 -a 2 -x {5.0 1.0 0 ------- null}
h -t 0.8703672170149 -s 5 -d 6 -p ack -e 40 -c 2 -i 7 -a 2 -x {5.0 1.0 -1 ------- null}
r -t 0.871782013838808 -s 6 -d 7 -p ack -e 40 -c 3 -i 6 -a 3 -x {6.0 2.0 0 ------- null}
+ -t 0.871782013838808 -s 7 -d 0 -p ack -e 40 -c 3 -i 6 -a 3 -x {6.0 2.0 0 ------- null}
- -t 0.871782013838808 -s 7 -d 0 -p ack -e 40 -c 3 -i 6 -a 3 -x {6.0 2.0 0 ------- null}
h -t 0.871782013838808 -s 7 -d 0 -p ack -e 40 -c 3 -i 6 -a 3 -x {6.0 2.0 -1 ------- null}
r -t 0.8976 -s 7 -d 0 -p ack -e 40 -c 4 -i 4 -a 4 -x {7.0 3.0 0 ------- null}
+ -t 0.8976 -s 0 -d 1 -p ack -e 40 -c 4 -i 4 -a 4 -x {7.0 3.0 0 ------- null}
- -t 0.8976 -s 0 -d 1 -p ack -e 40 -c 4 -i 4 -a 4 -x {7.0 3.0 0 ------- null}
h -t 0.8976 -s 0 -d 1 -p ack -e 40 -c 4 -i 4 -a 4 -x {7.0 3.0 -1 ------- null}
r -t 0.9456 -s 4 -d 3 -p ack -e 40 -c 1 -i 5 -a 1 -x {4.0 0.0 0 ------- null}
+ -t 0.9456 -s 3 -d 2 -p ack -e 40 -c 1 -i 5 -a 1 -x {4.0 0.0 0 ------- null}
- -t 0.9456 -s 3 -d 2 -p ack -e 40 -c 1 -i 5 -a 1 -x {4.0 0.0 0 ------- null}
h -t 0.9456 -s 3 -d 2 -p ack -e 40 -c 1 -i 5 -a 1 -x {4.0 0.0 -1 ------- null}
r -t 0.94792 -s 0 -d 1 -p ack -e 40 -c 4 -i 4 -a 4 -x {7.0 3.0 0 ------- null}
+ -t 0.94792 -s 1 -d 2 -p ack -e 40 -c 4 -i 4 -a 4 -x {7.0 3.0 0 ------- null}
- -t 0.94792 -s 1 -d 2 -p ack -e 40 -c 4 -i 4 -a 4 -x {7.0 3.0 0 ------- null}
h -t 0.94792 -s 1 -d 2 -p ack -e 40 -c 4 -i 4 -a 4 -x {7.0 3.0 -1 ------- null}
r -t 0.99592 -s 3 -d 2 -p ack -e 40 -c 1 -i 5 -a 1 -x {4.0 0.0 0 ------- null}
+ -t 0.99592 -s 2 -d 1 -p ack -e 40 -c 1 -i 5 -a 1 -x {4.0 0.0 0 ------- null}
- -t 0.99592 -s 2 -d 1 -p ack -e 40 -c 1 -i 5 -a 1 -x {4.0 0.0 0 ------- null}
h -t 0.99592 -s 2 -d 1 -p ack -e 40 -c 1 -i 5 -a 1 -x {4.0 0.0 -1 ------- null}
r -t 1.0719672170149 -s 5 -d 6 -p ack -e 40 -c 2 -i 7 -a 2 -x {5.0 1.0 0 ------- null}
+ -t 1.0719672170149 -s 6 -d 7 -p ack -e 40 -c 2 -i 7 -a 2 -x {5.0 1.0 0 ------- null}
- -t 1.0719672170149 -s 6 -d 7 -p ack -e 40 -c 2 -i 7 -a 2 -x {5.0 1.0 0 ------- null}
h -t 1.0719672170149 -s 6 -d 7 -p ack -e 40 -c 2 -i 7 -a 2 -x {5.0 1.0 -1 ------- null}
r -t 1.07338201383881 -s 7 -d 0 -p ack -e 40 -c 3 -i 6 -a 3 -x {6.0 2.0 0 ------- null}
+ -t 1.07338201383881 -s 0 -d 1 -p ack -e 40 -c 3 -i 6 -a 3 -x {6.0 2.0 0 ------- null}
- -t 1.07338201383881 -s 0 -d 1 -p ack -e 40 -c 3 -i 6 -a 3 -x {6.0 2.0 0 ------- null}
h -t 1.07338201383881 -s 0 -d 1 -p ack -e 40 -c 3 -i 6 -a 3 -x {6.0 2.0 -1 ------- null}
r -t 1.1222872170149 -s 6 -d 7 -p ack -e 40 -c 2 -i 7 -a 2 -x {5.0 1.0 0 ------- null}
+ -t 1.1222872170149 -s 7 -d 0 -p ack -e 40 -c 2 -i 7 -a 2 -x {5.0 1.0 0 ------- null}
- -t 1.1222872170149 -s 7 -d 0 -p ack -e 40 -c 2 -i 7 -a 2 -x {5.0 1.0 0 ------- null}
h -t 1.1222872170149 -s 7 -d 0 -p ack -e 40 -c 2 -i 7 -a 2 -x {5.0 1.0 -1 ------- null}
r -t 1.12370201383881 -s 0 -d 1 -p ack -e 40 -c 3 -i 6 -a 3 -x {6.0 2.0 0 ------- null}
+ -t 1.12370201383881 -s 1 -d 2 -p ack -e 40 -c 3 -i 6 -a 3 -x {6.0 2.0 0 ------- null}
- -t 1.12370201383881 -s 1 -d 2 -p ack -e 40 -c 3 -i 6 -a 3 -x {6.0 2.0 0 ------- null}
h -t 1.12370201383881 -s 1 -d 2 -p ack -e 40 -c 3 -i 6 -a 3 -x {6.0 2.0 -1 ------- null}
r -t 1.14952 -s 1 -d 2 -p ack -e 40 -c 4 -i 4 -a 4 -x {7.0 3.0 0 ------- null}
+ -t 1.14952 -s 2 -d 3 -p ack -e 40 -c 4 -i 4 -a 4 -x {7.0 3.0 0 ------- null}
- -t 1.14952 -s 2 -d 3 -p ack -e 40 -c 4 -i 4 -a 4 -x {7.0 3.0 0 ------- null}
h -t 1.14952 -s 2 -d 3 -p ack -e 40 -c 4 -i 4 -a 4 -x {7.0 3.0 -1 ------- null}
r -t 1.19752 -s 2 -d 1 -p ack -e 40 -c 1 -i 5 -a 1 -x {4.0 0.0 0 ------- null}
+ -t 1.19752 -s 1 -d 0 -p ack -e 40 -c 1 -i 5 -a 1 -x {4.0 0.0 0 ------- null}
- -t 1.19752 -s 1 -d 0 -p ack -e 40 -c 1 -i 5 -a 1 -x {4.0 0.0 0 ------- null}
h -t 1.19752 -s 1 -d 0 -p ack -e 40 -c 1 -i 5 -a 1 -x {4.0 0.0 -1 ------- null}
r -t 1.19984 -s 2 -d 3 -p ack -e 40 -c 4 -i 4 -a 4 -x {7.0 3.0 0 ------- null}
+ -t 1.19984 -s 3 -d 2 -p tcp -e 1000 -c 4 -i 8 -a 4 -x {3.0 7.0 1 ------- null}
- -t 1.19984 -s 3 -d 2 -p tcp -e 1000 -c 4 -i 8 -a 4 -x {3.0 7.0 1 ------- null}
h -t 1.19984 -s 3 -d 2 -p tcp -e 1000 -c 4 -i 8 -a 4 -x {3.0 7.0 -1 ------- null}
r -t 1.24784 -s 1 -d 0 -p ack -e 40 -c 1 -i 5 -a 1 -x {4.0 0.0 0 ------- null}
+ -t 1.24784 -s 0 -d 1 -p tcp -e 1500 -c 1 -i 9 -a 1 -x {0.0 4.0 1 ------- null}
- -t 1.24784 -s 0 -d 1 -p tcp -e 1500 -c 1 -i 9 -a 1 -x {0.0 4.0 1 ------- null}
h -t 1.24784 -s 0 -d 1 -p tcp -e 1500 -c 1 -i 9 -a 1 -x {0.0 4.0 -1 ------- null}
r -t 1.25784 -s 3 -d 2 -p tcp -e 1000 -c 4 -i 8 -a 4 -x {3.0 7.0 1 ------- null}
+ -t 1.25784 -s 2 -d 1 -p tcp -e 1000 -c 4 -i 8 -a 4 -x {3.0 7.0 1 ------- null}
- -t 1.25784 -s 2 -d 1 -p tcp -e 1000 -c 4 -i 8 -a 4 -x {3.0 7.0 1 ------- null}
h -t 1.25784 -s 2 -d 1 -p tcp -e 1000 -c 4 -i 8 -a 4 -x {3.0 7.0 -1 ------- null}
r -t 1.30984 -s 0 -d 1 -p tcp -e 1500 -c 1 -i 9 -a 1 -x {0.0 4.0 1 ------- null}
+ -t 1.30984 -s 1 -d 2 -p tcp -e 1500 -c 1 -i 9 -a 1 -x {0.0 4.0 1 ------- null}
- -t 1.30984 -s 1 -d 2 -p tcp -e 1500 -c 1 -i 9 -a 1 -x {0.0 4.0 1 ------- null}
h -t 1.30984 -s 1 -d 2 -p tcp -e 1500 -c 1 -i 9 -a 1 -x {0.0 4.0 -1 ------- null}
r -t 1.3238872170149 -s 7 -d 0 -p ack -e 40 -c 2 -i 7 -a 2 -x {5.0 1.0 0 ------- null}
+ -t 1.3238872170149 -s 0 -d 1 -p ack -e 40 -c 2 -i 7 -a 2 -x {5.0 1.0 0 ------- null}
- -t 1.3238872170149 -s 0 -d 1 -p ack -e 40 -c 2 -i 7 -a 2 -x {5.0 1.0 0 ------- null}
h -t 1.3238872170149 -s 0 -d 1 -p ack -e 40 -c 2 -i 7 -a 2 -x {5.0 1.0 -1 ------- null}
r -t 1.32530201383881 -s 1 -d 2 -p ack -e 40 -c 3 -i 6 -a 3 -x {6.0 2.0 0 ------- null}
+ -t 1.32530201383881 -s 2 -d 3 -p exp -e 1000 -c 3 -i 10 -a 3 -x {2.0 6.0 0 ------- null}
- -t 1.32530201383881 -s 2 -d 3 -p exp -e 1000 -c 3 -i 10 -a 3 -x {2.0 6.0 0 ------- null}
h -t 1.32530201383881 -s 2 -d 3 -p exp -e 1000 -c 3 -i 10 -a 3 -x {2.0 6.0 -1 ------- null}
r -t 1.3742072170149 -s 0 -d 1 -p ack -e 40 -c 2 -i 7 -a 2 -x {5.0 1.0 0 ------- null}
+ -t 1.3742072170149 -s 1 -d 2 -p exp -e 1000 -c 2 -i 11 -a 2 -x {1.0 5.0 0 ------- null}
- -t 1.3742072170149 -s 1 -d 2 -p exp -e 1000 -c 2 -i 11 -a 2 -x {1.0 5.0 0 ------- null}
h -t 1.3742072170149 -s 1 -d 2 -p exp -e 1000 -c 2 -i 11 -a 2 -x {1.0 5.0 -1 ------- null}
r -t 1.38330201383881 -s 2 -d 3 -p exp -e 1000 -c 3 -i 10 -a 3 -x {2.0 6.0 0 ------- null}
+ -t 1.38330201383881 -s 3 -d 4 -p exp -e 1000 -c 3 -i 10 -a 3 -x {2.0 6.0 0 ------- null}
- -t 1.38330201383881 -s 3 -d 4 -p exp -e 1000 -c 3 -i 10 -a 3 -x {2.0 6.0 0 ------- null}
h -t 1.38330201383881 -s 3 -d 4 -p exp -e 1000 -c 3 -i 10 -a 3 -x {2.0 6.0 -1 ------- null}
r -t 1.49784 -s 2 -d 1 -p tcp -e 1000 -c 4 -i 8 -a 4 -x {3.0 7.0 1 ------- null}
+ -t 1.49784 -s 1 -d 0 -p tcp -e 1000 -c 4 -i 8 -a 4 -x {3.0 7.0 1 ------- null}
- -t 1.49784 -s 1 -d 0 -p tcp -e 1000 -c 4 -i 8 -a 4 -x {3.0 7.0 1 ------- null}
h -t 1.49784 -s 1 -d 0 -p tcp -e 1000 -c 4 -i 8 -a 4 -x {3.0 7.0 -1 ------- null}
r -t 1.55584 -s 1 -d 0 -p tcp -e 1000 -c 4 -i 8 -a 4 -x {3.0 7.0 1 ------- null}
+ -t 1.55584 -s 0 -d 7 -p tcp -e 1000 -c 4 -i 8 -a 4 -x {3.0 7.0 1 ------- null}
- -t 1.55584 -s 0 -d 7 -p tcp -e 1000 -c 4 -i 8 -a 4 -x {3.0 7.0 1 ------- null}
h -t 1.55584 -s 0 -d 7 -p tcp -e 1000 -c 4 -i 8 -a 4 -x {3.0 7.0 -1 ------- null}
r -t 1.56984 -s 1 -d 2 -p tcp -e 1500 -c 1 -i 9 -a 1 -x {0.0 4.0 1 ------- null}
+ -t 1.56984 -s 2 -d 3 -p tcp -e 1500 -c 1 -i 9 -a 1 -x {0.0 4.0 1 ------- null}
- -t 1.56984 -s 2 -d 3 -p tcp -e 1500 -c 1 -i 9 -a 1 -x {0.0 4.0 1 ------- null}
h -t 1.56984 -s 2 -d 3 -p tcp -e 1500 -c 1 -i 9 -a 1 -x {0.0 4.0 -1 ------- null}
r -t 1.6142072170149 -s 1 -d 2 -p exp -e 1000 -c 2 -i 11 -a 2 -x {1.0 5.0 0 ------- null}
+ -t 1.6142072170149 -s 2 -d 3 -p exp -e 1000 -c 2 -i 11 -a 2 -x {1.0 5.0 0 ------- null}
- -t 1.6142072170149 -s 2 -d 3 -p exp -e 1000 -c 2 -i 11 -a 2 -x {1.0 5.0 0 ------- null}
h -t 1.6142072170149 -s 2 -d 3 -p exp -e 1000 -c 2 -i 11 -a 2 -x {1.0 5.0 -1 ------- null}
r -t 1.62330201383881 -s 3 -d 4 -p exp -e 1000 -c 3 -i 10 -a 3 -x {2.0 6.0 0 ------- null}
+ -t 1.62330201383881 -s 4 -d 5 -p exp -e 1000 -c 3 -i 10 -a 3 -x {2.0 6.0 0 ------- null}
- -t 1.62330201383881 -s 4 -d 5 -p exp -e 1000 -c 3 -i 10 -a 3 -x {2.0 6.0 0 ------- null}
h -t 1.62330201383881 -s 4 -d 5 -p exp -e 1000 -c 3 -i 10 -a 3 -x {2.0 6.0 -1 ------- null}
r -t 1.63184 -s 2 -d 3 -p tcp -e 1500 -c 1 -i 9 -a 1 -x {0.0 4.0 1 ------- null}
+ -t 1.63184 -s 3 -d 4 -p tcp -e 1500 -c 1 -i 9 -a 1 -x {0.0 4.0 1 ------- null}
- -t 1.63184 -s 3 -d 4 -p tcp -e 1500 -c 1 -i 9 -a 1 -x {0.0 4.0 1 ------- null}
h -t 1.63184 -s 3 -d 4 -p tcp -e 1500 -c 1 -i 9 -a 1 -x {0.0 4.0 -1 ------- null}
r -t 1.6722072170149 -s 2 -d 3 -p exp -e 1000 -c 2 -i 11 -a 2 -x {1.0 5.0 0 ------- null}
+ -t 1.6722072170149 -s 3 -d 4 -p exp -e 1000 -c 2 -i 11 -a 2 -x {1.0 5.0 0 ------- null}
r -t 1.68130201383881 -s 4 -d 5 -p exp -e 1000 -c 3 -i 10 -a 3 -x {2.0 6.0 0 ------- null}
+ -t 1.68130201383881 -s 5 -d 6 -p exp -e 1000 -c 3 -i 10 -a 3 -x {2.0 6.0 0 ------- null}
- -t 1.68130201383881 -s 5 -d 6 -p exp -e 1000 -c 3 -i 10 -a 3 -x {2.0 6.0 0 ------- null}
h -t 1.68130201383881 -s 5 -d 6 -p exp -e 1000 -c 3 -i 10 -a 3 -x {2.0 6.0 -1 ------- null}
- -t 1.69184 -s 3 -d 4 -p exp -e 1000 -c 2 -i 11 -a 2 -x {1.0 5.0 0 ------- null}
h -t 1.69184 -s 3 -d 4 -p exp -e 1000 -c 2 -i 11 -a 2 -x {1.0 5.0 -1 ------- null}
r -t 1.79584 -s 0 -d 7 -p tcp -e 1000 -c 4 -i 8 -a 4 -x {3.0 7.0 1 ------- null}
+ -t 1.79584 -s 7 -d 0 -p ack -e 40 -c 4 -i 12 -a 4 -x {7.0 3.0 1 ------- null}
- -t 1.79584 -s 7 -d 0 -p ack -e 40 -c 4 -i 12 -a 4 -x {7.0 3.0 1 ------- null}
h -t 1.79584 -s 7 -d 0 -p ack -e 40 -c 4 -i 12 -a 4 -x {7.0 3.0 -1 ------- null}
r -t 1.89184 -s 3 -d 4 -p tcp -e 1500 -c 1 -i 9 -a 1 -x {0.0 4.0 1 ------- null}
+ -t 1.89184 -s 4 -d 3 -p ack -e 40 -c 1 -i 13 -a 1 -x {4.0 0.0 1 ------- null}
- -t 1.89184 -s 4 -d 3 -p ack -e 40 -c 1 -i 13 -a 1 -x {4.0 0.0 1 ------- null}
h -t 1.89184 -s 4 -d 3 -p ack -e 40 -c 1 -i 13 -a 1 -x {4.0 0.0 -1 ------- null}
r -t 1.92130201383881 -s 5 -d 6 -p exp -e 1000 -c 3 -i 10 -a 3 -x {2.0 6.0 0 ------- null}
+ -t 1.92130201383881 -s 6 -d 7 -p ack -e 40 -c 3 -i 14 -a 3 -x {6.0 2.0 1 ------- null}
- -t 1.92130201383881 -s 6 -d 7 -p ack -e 40 -c 3 -i 14 -a 3 -x {6.0 2.0 1 ------- null}
h -t 1.92130201383881 -s 6 -d 7 -p ack -e 40 -c 3 -i 14 -a 3 -x {6.0 2.0 -1 ------- null}
r -t 1.93184 -s 3 -d 4 -p exp -e 1000 -c 2 -i 11 -a 2 -x {1.0 5.0 0 ------- null}
+ -t 1.93184 -s 4 -d 5 -p exp -e 1000 -c 2 -i 11 -a 2 -x {1.0 5.0 0 ------- null}
- -t 1.93184 -s 4 -d 5 -p exp -e 1000 -c 2 -i 11 -a 2 -x {1.0 5.0 0 ------- null}
h -t 1.93184 -s 4 -d 5 -p exp -e 1000 -c 2 -i 11 -a 2 -x {1.0 5.0 -1 ------- null}
r -t 1.97162201383881 -s 6 -d 7 -p ack -e 40 -c 3 -i 14 -a 3 -x {6.0 2.0 1 ------- null}
+ -t 1.97162201383881 -s 7 -d 0 -p ack -e 40 -c 3 -i 14 -a 3 -x {6.0 2.0 1 ------- null}
- -t 1.97162201383881 -s 7 -d 0 -p ack -e 40 -c 3 -i 14 -a 3 -x {6.0 2.0 1 ------- null}
h -t 1.97162201383881 -s 7 -d 0 -p ack -e 40 -c 3 -i 14 -a 3 -x {6.0 2.0 -1 ------- null}
r -t 1.98984 -s 4 -d 5 -p exp -e 1000 -c 2 -i 11 -a 2 -x {1.0 5.0 0 ------- null}
+ -t 1.98984 -s 5 -d 6 -p ack -e 40 -c 2 -i 15 -a 2 -x {5.0 1.0 1 ------- null}
- -t 1.98984 -s 5 -d 6 -p ack -e 40 -c 2 -i 15 -a 2 -x {5.0 1.0 1 ------- null}
h -t 1.98984 -s 5 -d 6 -p ack -e 40 -c 2 -i 15 -a 2 -x {5.0 1.0 -1 ------- null}
r -t 1.99744 -s 7 -d 0 -p ack -e 40 -c 4 -i 12 -a 4 -x {7.0 3.0 1 ------- null}
+ -t 1.99744 -s 0 -d 1 -p ack -e 40 -c 4 -i 12 -a 4 -x {7.0 3.0 1 ------- null}
- -t 1.99744 -s 0 -d 1 -p ack -e 40 -c 4 -i 12 -a 4 -x {7.0 3.0 1 ------- null}
h -t 1.99744 -s 0 -d 1 -p ack -e 40 -c 4 -i 12 -a 4 -x {7.0 3.0 -1 ------- null}
r -t 2.04776 -s 0 -d 1 -p ack -e 40 -c 4 -i 12 -a 4 -x {7.0 3.0 1 ------- null}
+ -t 2.04776 -s 1 -d 2 -p ack -e 40 -c 4 -i 12 -a 4 -x {7.0 3.0 1 ------- null}
- -t 2.04776 -s 1 -d 2 -p ack -e 40 -c 4 -i 12 -a 4 -x {7.0 3.0 1 ------- null}
h -t 2.04776 -s 1 -d 2 -p ack -e 40 -c 4 -i 12 -a 4 -x {7.0 3.0 -1 ------- null}
r -t 2.09344 -s 4 -d 3 -p ack -e 40 -c 1 -i 13 -a 1 -x {4.0 0.0 1 ------- null}
+ -t 2.09344 -s 3 -d 2 -p ack -e 40 -c 1 -i 13 -a 1 -x {4.0 0.0 1 ------- null}
- -t 2.09344 -s 3 -d 2 -p ack -e 40 -c 1 -i 13 -a 1 -x {4.0 0.0 1 ------- null}
h -t 2.09344 -s 3 -d 2 -p ack -e 40 -c 1 -i 13 -a 1 -x {4.0 0.0 -1 ------- null}
r -t 2.14376 -s 3 -d 2 -p ack -e 40 -c 1 -i 13 -a 1 -x {4.0 0.0 1 ------- null}
+ -t 2.14376 -s 2 -d 1 -p ack -e 40 -c 1 -i 13 -a 1 -x {4.0 0.0 1 ------- null}
- -t 2.14376 -s 2 -d 1 -p ack -e 40 -c 1 -i 13 -a 1 -x {4.0 0.0 1 ------- null}
h -t 2.14376 -s 2 -d 1 -p ack -e 40 -c 1 -i 13 -a 1 -x {4.0 0.0 -1 ------- null}
r -t 2.17322201383881 -s 7 -d 0 -p ack -e 40 -c 3 -i 14 -a 3 -x {6.0 2.0 1 ------- null}
+ -t 2.17322201383881 -s 0 -d 1 -p ack -e 40 -c 3 -i 14 -a 3 -x {6.0 2.0 1 ------- null}
- -t 2.17322201383881 -s 0 -d 1 -p ack -e 40 -c 3 -i 14 -a 3 -x {6.0 2.0 1 ------- null}
h -t 2.17322201383881 -s 0 -d 1 -p ack -e 40 -c 3 -i 14 -a 3 -x {6.0 2.0 -1 ------- null}
r -t 2.19144 -s 5 -d 6 -p ack -e 40 -c 2 -i 15 -a 2 -x {5.0 1.0 1 ------- null}
+ -t 2.19144 -s 6 -d 7 -p ack -e 40 -c 2 -i 15 -a 2 -x {5.0 1.0 1 ------- null}
- -t 2.19144 -s 6 -d 7 -p ack -e 40 -c 2 -i 15 -a 2 -x {5.0 1.0 1 ------- null}
h -t 2.19144 -s 6 -d 7 -p ack -e 40 -c 2 -i 15 -a 2 -x {5.0 1.0 -1 ------- null}
r -t 2.22354201383881 -s 0 -d 1 -p ack -e 40 -c 3 -i 14 -a 3 -x {6.0 2.0 1 ------- null}
+ -t 2.22354201383881 -s 1 -d 2 -p ack -e 40 -c 3 -i 14 -a 3 -x {6.0 2.0 1 ------- null}
- -t 2.22354201383881 -s 1 -d 2 -p ack -e 40 -c 3 -i 14 -a 3 -x {6.0 2.0 1 ------- null}
h -t 2.22354201383881 -s 1 -d 2 -p ack -e 40 -c 3 -i 14 -a 3 -x {6.0 2.0 -1 ------- null}
r -t 2.24176 -s 6 -d 7 -p ack -e 40 -c 2 -i 15 -a 2 -x {5.0 1.0 1 ------- null}
+ -t 2.24176 -s 7 -d 0 -p ack -e 40 -c 2 -i 15 -a 2 -x {5.0 1.0 1 ------- null}
- -t 2.24176 -s 7 -d 0 -p ack -e 40 -c 2 -i 15 -a 2 -x {5.0 1.0 1 ------- null}
h -t 2.24176 -s 7 -d 0 -p ack -e 40 -c 2 -i 15 -a 2 -x {5.0 1.0 -1 ------- null}
r -t 2.24936 -s 1 -d 2 -p ack -e 40 -c 4 -i 12 -a 4 -x {7.0 3.0 1 ------- null}
+ -t 2.24936 -s 2 -d 3 -p ack -e 40 -c 4 -i 12 -a 4 -x {7.0 3.0 1 ------- null}
- -t 2.24936 -s 2 -d 3 -p ack -e 40 -c 4 -i 12 -a 4 -x {7.0 3.0 1 ------- null}
h -t 2.24936 -s 2 -d 3 -p ack -e 40 -c 4 -i 12 -a 4 -x {7.0 3.0 -1 ------- null}
r -t 2.29968 -s 2 -d 3 -p ack -e 40 -c 4 -i 12 -a 4 -x {7.0 3.0 1 ------- null}
+ -t 2.29968 -s 3 -d 2 -p tcp -e 1000 -c 4 -i 16 -a 4 -x {3.0 7.0 2 ------- null}
- -t 2.29968 -s 3 -d 2 -p tcp -e 1000 -c 4 -i 16 -a 4 -x {3.0 7.0 2 ------- null}
h -t 2.29968 -s 3 -d 2 -p tcp -e 1000 -c 4 -i 16 -a 4 -x {3.0 7.0 -1 ------- null}
+ -t 2.29968 -s 3 -d 2 -p tcp -e 1000 -c 4 -i 17 -a 4 -x {3.0 7.0 3 ------- null}
+ -t 2.29968 -s 3 -d 2 -p tcp -e 1000 -c 4 -i 18 -a 4 -x {3.0 7.0 4 ------- null}
- -t 2.30768 -s 3 -d 2 -p tcp -e 1000 -c 4 -i 17 -a 4 -x {3.0 7.0 3 ------- null}
h -t 2.30768 -s 3 -d 2 -p tcp -e 1000 -c 4 -i 17 -a 4 -x {3.0 7.0 -1 ------- null}
- -t 2.31568 -s 3 -d 2 -p tcp -e 1000 -c 4 -i 18 -a 4 -x {3.0 7.0 4 ------- null}
h -t 2.31568 -s 3 -d 2 -p tcp -e 1000 -c 4 -i 18 -a 4 -x {3.0 7.0 -1 ------- null}
r -t 2.34536 -s 2 -d 1 -p ack -e 40 -c 1 -i 13 -a 1 -x {4.0 0.0 1 ------- null}
+ -t 2.34536 -s 1 -d 0 -p ack -e 40 -c 1 -i 13 -a 1 -x {4.0 0.0 1 ------- null}
- -t 2.34536 -s 1 -d 0 -p ack -e 40 -c 1 -i 13 -a 1 -x {4.0 0.0 1 ------- null}
h -t 2.34536 -s 1 -d 0 -p ack -e 40 -c 1 -i 13 -a 1 -x {4.0 0.0 -1 ------- null}
r -t 2.35768 -s 3 -d 2 -p tcp -e 1000 -c 4 -i 16 -a 4 -x {3.0 7.0 2 ------- null}
+ -t 2.35768 -s 2 -d 1 -p tcp -e 1000 -c 4 -i 16 -a 4 -x {3.0 7.0 2 ------- null}
- -t 2.35768 -s 2 -d 1 -p tcp -e 1000 -c 4 -i 16 -a 4 -x {3.0 7.0 2 ------- null}
h -t 2.35768 -s 2 -d 1 -p tcp -e 1000 -c 4 -i 16 -a 4 -x {3.0 7.0 -1 ------- null}
r -t 2.36568 -s 3 -d 2 -p tcp -e 1000 -c 4 -i 17 -a 4 -x {3.0 7.0 3 ------- null}
+ -t 2.36568 -s 2 -d 1 -p tcp -e 1000 -c 4 -i 17 -a 4 -x {3.0 7.0 3 ------- null}
r -t 2.37368 -s 3 -d 2 -p tcp -e 1000 -c 4 -i 18 -a 4 -x {3.0 7.0 4 ------- null}
+ -t 2.37368 -s 2 -d 1 -p tcp -e 1000 -c 4 -i 18 -a 4 -x {3.0 7.0 4 ------- null}
r -t 2.39568 -s 1 -d 0 -p ack -e 40 -c 1 -i 13 -a 1 -x {4.0 0.0 1 ------- null}
+ -t 2.39568 -s 0 -d 1 -p tcp -e 1500 -c 1 -i 19 -a 1 -x {0.0 4.0 2 ------- null}
- -t 2.39568 -s 0 -d 1 -p tcp -e 1500 -c 1 -i 19 -a 1 -x {0.0 4.0 2 ------- null}
h -t 2.39568 -s 0 -d 1 -p tcp -e 1500 -c 1 -i 19 -a 1 -x {0.0 4.0 -1 ------- null}
+ -t 2.39568 -s 0 -d 1 -p tcp -e 1500 -c 1 -i 20 -a 1 -x {0.0 4.0 3 ------- null}
+ -t 2.39568 -s 0 -d 1 -p tcp -e 1500 -c 1 -i 21 -a 1 -x {0.0 4.0 4 ------- null}
- -t 2.39768 -s 2 -d 1 -p tcp -e 1000 -c 4 -i 17 -a 4 -x {3.0 7.0 3 ------- null}
h -t 2.39768 -s 2 -d 1 -p tcp -e 1000 -c 4 -i 17 -a 4 -x {3.0 7.0 -1 ------- null}
- -t 2.40768 -s 0 -d 1 -p tcp -e 1500 -c 1 -i 20 -a 1 -x {0.0 4.0 3 ------- null}
h -t 2.40768 -s 0 -d 1 -p tcp -e 1500 -c 1 -i 20 -a 1 -x {0.0 4.0 -1 ------- null}
- -t 2.41968 -s 0 -d 1 -p tcp -e 1500 -c 1 -i 21 -a 1 -x {0.0 4.0 4 ------- null}
h -t 2.41968 -s 0 -d 1 -p tcp -e 1500 -c 1 -i 21 -a 1 -x {0.0 4.0 -1 ------- null}
r -t 2.42514201383881 -s 1 -d 2 -p ack -e 40 -c 3 -i 14 -a 3 -x {6.0 2.0 1 ------- null}
+ -t 2.42514201383881 -s 2 -d 3 -p exp -e 1000 -c 3 -i 22 -a 3 -x {2.0 6.0 0 ------- null}
- -t 2.42514201383881 -s 2 -d 3 -p exp -e 1000 -c 3 -i 22 -a 3 -x {2.0 6.0 0 ------- null}
h -t 2.42514201383881 -s 2 -d 3 -p exp -e 1000 -c 3 -i 22 -a 3 -x {2.0 6.0 -1 ------- null}
+ -t 2.42514201383881 -s 2 -d 3 -p exp -e 1000 -c 3 -i 23 -a 3 -x {2.0 6.0 0 ------- null}
+ -t 2.42514201383881 -s 2 -d 3 -p exp -e 1000 -c 3 -i 24 -a 3 -x {2.0 6.0 0 ------- null}
- -t 2.43314201383881 -s 2 -d 3 -p exp -e 1000 -c 3 -i 23 -a 3 -x {2.0 6.0 0 ------- null}
h -t 2.43314201383881 -s 2 -d 3 -p exp -e 1000 -c 3 -i 23 -a 3 -x {2.0 6.0 -1 ------- null}
- -t 2.43768 -s 2 -d 1 -p tcp -e 1000 -c 4 -i 18 -a 4 -x {3.0 7.0 4 ------- null}
h -t 2.43768 -s 2 -d 1 -p tcp -e 1000 -c 4 -i 18 -a 4 -x {3.0 7.0 -1 ------- null}
- -t 2.44114201383881 -s 2 -d 3 -p exp -e 1000 -c 3 -i 24 -a 3 -x {2.0 6.0 0 ------- null}
h -t 2.44114201383881 -s 2 -d 3 -p exp -e 1000 -c 3 -i 24 -a 3 -x {2.0 6.0 -1 ------- null}
r -t 2.44336 -s 7 -d 0 -p ack -e 40 -c 2 -i 15 -a 2 -x {5.0 1.0 1 ------- null}
+ -t 2.44336 -s 0 -d 1 -p ack -e 40 -c 2 -i 15 -a 2 -x {5.0 1.0 1 ------- null}
- -t 2.44336 -s 0 -d 1 -p ack -e 40 -c 2 -i 15 -a 2 -x {5.0 1.0 1 ------- null}
h -t 2.44336 -s 0 -d 1 -p ack -e 40 -c 2 -i 15 -a 2 -x {5.0 1.0 -1 ------- null}
r -t 2.45768 -s 0 -d 1 -p tcp -e 1500 -c 1 -i 19 -a 1 -x {0.0 4.0 2 ------- null}
+ -t 2.45768 -s 1 -d 2 -p tcp -e 1500 -c 1 -i 19 -a 1 -x {0.0 4.0 2 ------- null}
- -t 2.45768 -s 1 -d 2 -p tcp -e 1500 -c 1 -i 19 -a 1 -x {0.0 4.0 2 ------- null}
h -t 2.45768 -s 1 -d 2 -p tcp -e 1500 -c 1 -i 19 -a 1 -x {0.0 4.0 -1 ------- null}
r -t 2.46968 -s 0 -d 1 -p tcp -e 1500 -c 1 -i 20 -a 1 -x {0.0 4.0 3 ------- null}
+ -t 2.46968 -s 1 -d 2 -p tcp -e 1500 -c 1 -i 20 -a 1 -x {0.0 4.0 3 ------- null}
r -t 2.48168 -s 0 -d 1 -p tcp -e 1500 -c 1 -i 21 -a 1 -x {0.0 4.0 4 ------- null}
+ -t 2.48168 -s 1 -d 2 -p tcp -e 1500 -c 1 -i 21 -a 1 -x {0.0 4.0 4 ------- null}
r -t 2.48314201383881 -s 2 -d 3 -p exp -e 1000 -c 3 -i 22 -a 3 -x {2.0 6.0 0 ------- null}
+ -t 2.48314201383881 -s 3 -d 4 -p exp -e 1000 -c 3 -i 22 -a 3 -x {2.0 6.0 0 ------- null}
- -t 2.48314201383881 -s 3 -d 4 -p exp -e 1000 -c 3 -i 22 -a 3 -x {2.0 6.0 0 ------- null}
h -t 2.48314201383881 -s 3 -d 4 -p exp -e 1000 -c 3 -i 22 -a 3 -x {2.0 6.0 -1 ------- null}
r -t 2.49114201383881 -s 2 -d 3 -p exp -e 1000 -c 3 -i 23 -a 3 -x {2.0 6.0 0 ------- null}
+ -t 2.49114201383881 -s 3 -d 4 -p exp -e 1000 -c 3 -i 23 -a 3 -x {2.0 6.0 0 ------- null}
r -t 2.49368 -s 0 -d 1 -p ack -e 40 -c 2 -i 15 -a 2 -x {5.0 1.0 1 ------- null}
+ -t 2.49368 -s 1 -d 2 -p exp -e 1000 -c 2 -i 25 -a 2 -x {1.0 5.0 0 ------- null}
+ -t 2.49368 -s 1 -d 2 -p exp -e 1000 -c 2 -i 26 -a 2 -x {1.0 5.0 0 ------- null}
+ -t 2.49368 -s 1 -d 2 -p exp -e 1000 -c 2 -i 27 -a 2 -x {1.0 5.0 0 ------- null}
d -t 2.49368 -s 1 -d 2 -p exp -e 1000 -c 2 -i 27 -a 2 -x {1.0 5.0 0 ------- null}
r -t 2.49914201383881 -s 2 -d 3 -p exp -e 1000 -c 3 -i 24 -a 3 -x {2.0 6.0 0 ------- null}
+ -t 2.49914201383881 -s 3 -d 4 -p exp -e 1000 -c 3 -i 24 -a 3 -x {2.0 6.0 0 ------- null}
- -t 2.51768 -s 1 -d 2 -p tcp -e 1500 -c 1 -i 20 -a 1 -x {0.0 4.0 3 ------- null}
h -t 2.51768 -s 1 -d 2 -p tcp -e 1500 -c 1 -i 20 -a 1 -x {0.0 4.0 -1 ------- null}
- -t 2.52314201383881 -s 3 -d 4 -p exp -e 1000 -c 3 -i 23 -a 3 -x {2.0 6.0 0 ------- null}
h -t 2.52314201383881 -s 3 -d 4 -p exp -e 1000 -c 3 -i 23 -a 3 -x {2.0 6.0 -1 ------- null}
- -t 2.56314201383881 -s 3 -d 4 -p exp -e 1000 -c 3 -i 24 -a 3 -x {2.0 6.0 0 ------- null}
h -t 2.56314201383881 -s 3 -d 4 -p exp -e 1000 -c 3 -i 24 -a 3 -x {2.0 6.0 -1 ------- null}
- -t 2.57768 -s 1 -d 2 -p tcp -e 1500 -c 1 -i 21 -a 1 -x {0.0 4.0 4 ------- null}
h -t 2.57768 -s 1 -d 2 -p tcp -e 1500 -c 1 -i 21 -a 1 -x {0.0 4.0 -1 ------- null}
r -t 2.59768 -s 2 -d 1 -p tcp -e 1000 -c 4 -i 16 -a 4 -x {3.0 7.0 2 ------- null}
+ -t 2.59768 -s 1 -d 0 -p tcp -e 1000 -c 4 -i 16 -a 4 -x {3.0 7.0 2 ------- null}
- -t 2.59768 -s 1 -d 0 -p tcp -e 1000 -c 4 -i 16 -a 4 -x {3.0 7.0 2 ------- null}
h -t 2.59768 -s 1 -d 0 -p tcp -e 1000 -c 4 -i 16 -a 4 -x {3.0 7.0 -1 ------- null}
r -t 2.63768 -s 2 -d 1 -p tcp -e 1000 -c 4 -i 17 -a 4 -x {3.0 7.0 3 ------- null}
+ -t 2.63768 -s 1 -d 0 -p tcp -e 1000 -c 4 -i 17 -a 4 -x {3.0 7.0 3 ------- null}
- -t 2.63768 -s 1 -d 0 -p tcp -e 1000 -c 4 -i 17 -a 4 -x {3.0 7.0 3 ------- null}
h -t 2.63768 -s 1 -d 0 -p tcp -e 1000 -c 4 -i 17 -a 4 -x {3.0 7.0 -1 ------- null}
- -t 2.63768 -s 1 -d 2 -p exp -e 1000 -c 2 -i 25 -a 2 -x {1.0 5.0 0 ------- null}
h -t 2.63768 -s 1 -d 2 -p exp -e 1000 -c 2 -i 25 -a 2 -x {1.0 5.0 -1 ------- null}
r -t 2.65568 -s 1 -d 0 -p tcp -e 1000 -c 4 -i 16 -a 4 -x {3.0 7.0 2 ------- null}
+ -t 2.65568 -s 0 -d 7 -p tcp -e 1000 -c 4 -i 16 -a 4 -x {3.0 7.0 2 ------- null}
- -t 2.65568 -s 0 -d 7 -p tcp -e 1000 -c 4 -i 16 -a 4 -x {3.0 7.0 2 ------- null}
h -t 2.65568 -s 0 -d 7 -p tcp -e 1000 -c 4 -i 16 -a 4 -x {3.0 7.0 -1 ------- null}
r -t 2.67768 -s 2 -d 1 -p tcp -e 1000 -c 4 -i 18 -a 4 -x {3.0 7.0 4 ------- null}
+ -t 2.67768 -s 1 -d 0 -p tcp -e 1000 -c 4 -i 18 -a 4 -x {3.0 7.0 4 ------- null}
- -t 2.67768 -s 1 -d 0 -p tcp -e 1000 -c 4 -i 18 -a 4 -x {3.0 7.0 4 ------- null}
h -t 2.67768 -s 1 -d 0 -p tcp -e 1000 -c 4 -i 18 -a 4 -x {3.0 7.0 -1 ------- null}
- -t 2.67768 -s 1 -d 2 -p exp -e 1000 -c 2 -i 26 -a 2 -x {1.0 5.0 0 ------- null}