V -t * -v 1.0a5 -a 0
A -t * -n 1 -p 0 -o 0x7fffffff -c 30 -a 1
A -t * -h 1 -m 1073741823 -s 0
c -t * -i 4 -n Yellow
c -t * -i 1 -n Green
c -t * -i 2 -n Blue
c -t * -i 3 -n Red
n -t * -a 8 -s 8 -S UP -v circle -c yellow -i yellow
n -t * -a 4 -s 4 -S UP -v circle -c yellow -i yellow
n -t * -a 0 -s 0 -S UP -v box -c black -i black
n -t * -a 5 -s 5 -S UP -v circle -c green -i green
n -t * -a 1 -s 1 -S UP -v circle -c green -i green
n -t * -a 6 -s 6 -S UP -v circle -c blue -i blue
n -t * -a 2 -s 2 -S UP -v circle -c blue -i blue
n -t * -a 7 -s 7 -S UP -v circle -c red -i red
n -t * -a 3 -s 3 -S UP -v circle -c red -i red
l -t * -s 0 -d 1 -S UP -r 1000000 -D 0.050000000000000003 -c black -o up
l -t * -s 0 -d 2 -S UP -r 1000000 -D 0.050000000000000003 -c black -o right-up
l -t * -s 0 -d 3 -S UP -r 1000000 -D 0.050000000000000003 -c black -o right
l -t * -s 0 -d 4 -S UP -r 1000000 -D 0.050000000000000003 -c black -o right-down
l -t * -s 0 -d 5 -S UP -r 200000 -D 0.20000000000000001 -c black -o down
l -t * -s 0 -d 6 -S UP -r 200000 -D 0.20000000000000001 -c black -o left-down
l -t * -s 0 -d 7 -S UP -r 200000 -D 0.20000000000000001 -c black -o left
l -t * -s 0 -d 8 -S UP -r 200000 -D 0.20000000000000001 -c black -o left-up
+ -t 0.1 -s 1 -d 0 -p tcp -e 40 -c 1 -i 0 -a 1 -x {1.0 5.0 0 ------- null}
- -t 0.1 -s 1 -d 0 -p tcp -e 40 -c 1 -i 0 -a 1 -x {1.0 5.0 0 ------- null}
h -t 0.1 -s 1 -d 0 -p tcp -e 40 -c 1 -i 0 -a 1 -x {1.0 5.0 -1 ------- null}
+ -t 0.1 -s 4 -d 0 -p tcp -e 40 -c 4 -i 1 -a 4 -x {4.0 8.0 0 ------- null}
- -t 0.1 -s 4 -d 0 -p tcp -e 40 -c 4 -i 1 -a 4 -x {4.0 8.0 0 ------- null}
h -t 0.1 -s 4 -d 0 -p tcp -e 40 -c 4 -i 1 -a 4 -x {4.0 8.0 -1 ------- null}
+ -t 0.125736986743863 -s 3 -d 0 -p exp -e 40 -c 3 -i 2 -a 3 -x {3.0 7.0 0 ------- null}
- -t 0.125736986743863 -s 3 -d 0 -p exp -e 40 -c 3 -i 2 -a 3 -x {3.0 7.0 0 ------- null}
h -t 0.125736986743863 -s 3 -d 0 -p exp -e 40 -c 3 -i 2 -a 3 -x {3.0 7.0 -1 ------- null}
+ -t 0.139203094513941 -s 2 -d 0 -p exp -e 40 -c 2 -i 3 -a 2 -x {2.0 6.0 0 ------- null}
- -t 0.139203094513941 -s 2 -d 0 -p exp -e 40 -c 2 -i 3 -a 2 -x {2.0 6.0 0 ------- null}
h -t 0.139203094513941 -s 2 -d 0 -p exp -e 40 -c 2 -i 3 -a 2 -x {2.0 6.0 -1 ------- null}
r -t 0.15032 -s 1 -d 0 -p tcp -e 40 -c 1 -i 0 -a 1 -x {1.0 5.0 0 ------- null}
+ -t 0.15032 -s 0 -d 5 -p tcp -e 40 -c 1 -i 0 -a 1 -x {1.0 5.0 0 ------- null}
- -t 0.15032 -s 0 -d 5 -p tcp -e 40 -c 1 -i 0 -a 1 -x {1.0 5.0 0 ------- null}
h -t 0.15032 -s 0 -d 5 -p tcp -e 40 -c 1 -i 0 -a 1 -x {1.0 5.0 -1 ------- null}
r -t 0.15032 -s 4 -d 0 -p tcp -e 40 -c 4 -i 1 -a 4 -x {4.0 8.0 0 ------- null}
+ -t 0.15032 -s 0 -d 8 -p tcp -e 40 -c 4 -i 1 -a 4 -x {4.0 8.0 0 ------- null}
- -t 0.15032 -s 0 -d 8 -p tcp -e 40 -c 4 -i 1 -a 4 -x {4.0 8.0 0 ------- null}
h -t 0.15032 -s 0 -d 8 -p tcp -e 40 -c 4 -i 1 -a 4 -x {4.0 8.0 -1 ------- null}
r -t 0.176056986743863 -s 3 -d 0 -p exp -e 40 -c 3 -i 2 -a 3 -x {3.0 7.0 0 ------- null}
+ -t 0.176056986743863 -s 0 -d 7 -p exp -e 40 -c 3 -i 2 -a 3 -x {3.0 7.0 0 ------- null}
- -t 0.176056986743863 -s 0 -d 7 -p exp -e 40 -c 3 -i 2 -a 3 -x {3.0 7.0 0 ------- null}
h -t 0.176056986743863 -s 0 -d 7 -p exp -e 40 -c 3 -i 2 -a 3 -x {3.0 7.0 -1 ------- null}
r -t 0.189523094513941 -s 2 -d 0 -p exp -e 40 -c 2 -i 3 -a 2 -x {2.0 6.0 0 ------- null}
+ -t 0.189523094513941 -s 0 -d 6 -p exp -e 40 -c 2 -i 3 -a 2 -x {2.0 6.0 0 ------- null}
- -t 0.189523094513941 -s 0 -d 6 -p exp -e 40 -c 2 -i 3 -a 2 -x {2.0 6.0 0 ------- null}
h -t 0.189523094513941 -s 0 -d 6 -p exp -e 40 -c 2 -i 3 -a 2 -x {2.0 6.0 -1 ------- null}
r -t 0.35192 -s 0 -d 5 -p tcp -e 40 -c 1 -i 0 -a 1 -x {1.0 5.0 0 ------- null}
+ -t 0.35192 -s 5 -d 0 -p ack -e 40 -c 1 -i 4 -a 1 -x {5.0 1.0 0 ------- null}
- -t 0.35192 -s 5 -d 0 -p ack -e 40 -c 1 -i 4 -a 1 -x {5.0 1.0 0 ------- null}
h -t 0.35192 -s 5 -d 0 -p ack -e 40 -c 1 -i 4 -a 1 -x {5.0 1.0 -1 ------- null}
r -t 0.35192 -s 0 -d 8 -p tcp -e 40 -c 4 -i 1 -a 4 -x {4.0 8.0 0 ------- null}
+ -t 0.35192 -s 8 -d 0 -p ack -e 40 -c 4 -i 5 -a 4 -x {8.0 4.0 0 ------- null}
- -t 0.35192 -s 8 -d 0 -p ack -e 40 -c 4 -i 5 -a 4 -x {8.0 4.0 0 ------- null}
h -t 0.35192 -s 8 -d 0 -p ack -e 40 -c 4 -i 5 -a 4 -x {8.0 4.0 -1 ------- null}
r -t 0.377656986743863 -s 0 -d 7 -p exp -e 40 -c 3 -i 2 -a 3 -x {3.0 7.0 0 ------- null}
+ -t 0.377656986743863 -s 7 -d 0 -p ack -e 40 -c 3 -i 6 -a 3 -x {7.0 3.0 0 ------- null}
- -t 0.377656986743863 -s 7 -d 0 -p ack -e 40 -c 3 -i 6 -a 3 -x {7.0 3.0 0 ------- null}
h -t 0.377656986743863 -s 7 -d 0 -p ack -e 40 -c 3 -i 6 -a 3 -x {7.0 3.0 -1 ------- null}
r -t 0.391123094513941 -s 0 -d 6 -p exp -e 40 -c 2 -i 3 -a 2 -x {2.0 6.0 0 ------- null}
+ -t 0.391123094513941 -s 6 -d 0 -p ack -e 40 -c 2 -i 7 -a 2 -x {6.0 2.0 0 ------- null}
- -t 0.391123094513941 -s 6 -d 0 -p ack -e 40 -c 2 -i 7 -a 2 -x {6.0 2.0 0 ------- null}
h -t 0.391123094513941 -s 6 -d 0 -p ack -e 40 -c 2 -i 7 -a 2 -x {6.0 2.0 -1 ------- null}
r -t 0.55352 -s 5 -d 0 -p ack -e 40 -c 1 -i 4 -a 1 -x {5.0 1.0 0 ------- null}
+ -t 0.55352 -s 0 -d 1 -p ack -e 40 -c 1 -i 4 -a 1 -x {5.0 1.0 0 ------- null}
- -t 0.55352 -s 0 -d 1 -p ack -e 40 -c 1 -i 4 -a 1 -x {5.0 1.0 0 ------- null}
h -t 0.55352 -s 0 -d 1 -p ack -e 40 -c 1 -i 4 -a 1 -x {5.0 1.0 -1 ------- null}
r -t 0.55352 -s 8 -d 0 -p ack -e 40 -c 4 -i 5 -a 4 -x {8.0 4.0 0 ------- null}
+ -t 0.55352 -s 0 -d 4 -p ack -e 40 -c 4 -i 5 -a 4 -x {8.0 4.0 0 ------- null}
- -t 0.55352 -s 0 -d 4 -p ack -e 40 -c 4 -i 5 -a 4 -x {8.0 4.0 0 ------- null}
h -t 0.55352 -s 0 -d 4 -p ack -e 40 -c 4 -i 5 -a 4 -x {8.0 4.0 -1 ------- null}
r -t 0.579256986743863 -s 7 -d 0 -p ack -e 40 -c 3 -i 6 -a 3 -x {7.0 3.0 0 ------- null}
+ -t 0.579256986743863 -s 0 -d 3 -p ack -e 40 -c 3 -i 6 -a 3 -x {7.0 3.0 0 ------- null}
- -t 0.579256986743863 -s 0 -d 3 -p ack -e 40 -c 3 -i 6 -a 3 -x {7.0 3.0 0 ------- null}
h -t 0.579256986743863 -s 0 -d 3 -p ack -e 40 -c 3 -i 6 -a 3 -x {7.0 3.0 -1 ------- null}
r -t 0.592723094513941 -s 6 -d 0 -p ack -e 40 -c 2 -i 7 -a 2 -x {6.0 2.0 0 ------- null}
+ -t 0.592723094513941 -s 0 -d 2 -p ack -e 40 -c 2 -i 7 -a 2 -x {6.0 2.0 0 ------- null}
- -t 0.592723094513941 -s 0 -d 2 -p ack -e 40 -c 2 -i 7 -a 2 -x {6.0 2.0 0 ------- null}
h -t 0.592723094513941 -s 0 -d 2 -p ack -e 40 -c 2 -i 7 -a 2 -x {6.0 2.0 -1 ------- null}
r -t 0.60384 -s 0 -d 1 -p ack -e 40 -c 1 -i 4 -a 1 -x {5.0 1.0 0 ------- null}
+ -t 0.60384 -s 1 -d 0 -p tcp -e 1540 -c 1 -i 8 -a 1 -x {1.0 5.0 1 ------- null}
- -t 0.60384 -s 1 -d 0 -p tcp -e 1540 -c 1 -i 8 -a 1 -x {1.0 5.0 1 ------- null}
h -t 0.60384 -s 1 -d 0 -p tcp -e 1540 -c 1 -i 8 -a 1 -x {1.0 5.0 -1 ------- null}
+ -t 0.60384 -s 1 -d 0 -p tcp -e 1540 -c 1 -i 9 -a 1 -x {1.0 5.0 2 ------- null}
r -t 0.60384 -s 0 -d 4 -p ack -e 40 -c 4 -i 5 -a 4 -x {8.0 4.0 0 ------- null}
+ -t 0.60384 -s 4 -d 0 -p tcp -e 1040 -c 4 -i 10 -a 4 -x {4.0 8.0 1 ------- null}
- -t 0.60384 -s 4 -d 0 -p tcp -e 1040 -c 4 -i 10 -a 4 -x {4.0 8.0 1 ------- null}
h -t 0.60384 -s 4 -d 0 -p tcp -e 1040 -c 4 -i 10 -a 4 -x {4.0 8.0 -1 ------- null}
+ -t 0.60384 -s 4 -d 0 -p tcp -e 1040 -c 4 -i 11 -a 4 -x {4.0 8.0 2 ------- null}
- -t 0.61216 -s 4 -d 0 -p tcp -e 1040 -c 4 -i 11 -a 4 -x {4.0 8.0 2 ------- null}
h -t 0.61216 -s 4 -d 0 -p tcp -e 1040 -c 4 -i 11 -a 4 -x {4.0 8.0 -1 ------- null}
- -t 0.61616 -s 1 -d 0 -p tcp -e 1540 -c 1 -i 9 -a 1 -x {1.0 5.0 2 ------- null}
h -t 0.61616 -s 1 -d 0 -p tcp -e 1540 -c 1 -i 9 -a 1 -x {1.0 5.0 -1 ------- null}
r -t 0.629576986743863 -s 0 -d 3 -p ack -e 40 -c 3 -i 6 -a 3 -x {7.0 3.0 0 ------- null}
+ -t 0.629576986743863 -s 3 -d 0 -p exp -e 1040 -c 3 -i 12 -a 3 -x {3.0 7.0 0 ------- null}
- -t 0.629576986743863 -s 3 -d 0 -p exp -e 1040 -c 3 -i 12 -a 3 -x {3.0 7.0 0 ------- null}
h -t 0.629576986743863 -s 3 -d 0 -p exp -e 1040 -c 3 -i 12 -a 3 -x {3.0 7.0 -1 ------- null}
+ -t 0.629576986743863 -s 3 -d 0 -p exp -e 1040 -c 3 -i 13 -a 3 -x {3.0 7.0 0 ------- null}
- -t 0.637896986743863 -s 3 -d 0 -p exp -e 1040 -c 3 -i 13 -a 3 -x {3.0 7.0 0 ------- null}
h -t 0.637896986743863 -s 3 -d 0 -p exp -e 1040 -c 3 -i 13 -a 3 -x {3.0 7.0 -1 ------- null}
r -t 0.643043094513941 -s 0 -d 2 -p ack -e 40 -c 2 -i 7 -a 2 -x {6.0 2.0 0 ------- null}
+ -t 0.643043094513941 -s 2 -d 0 -p exp -e 1040 -c 2 -i 14 -a 2 -x {2.0 6.0 0 ------- null}
- -t 0.643043094513941 -s 2 -d 0 -p exp -e 1040 -c 2 -i 14 -a 2 -x {2.0 6.0 0 ------- null}
h -t 0.643043094513941 -s 2 -d 0 -p exp -e 1040 -c 2 -i 14 -a 2 -x {2.0 6.0 -1 ------- null}
+ -t 0.643043094513941 -s 2 -d 0 -p exp -e 1040 -c 2 -i 15 -a 2 -x {2.0 6.0 0 ------- null}
- -t 0.651363094513941 -s 2 -d 0 -p exp -e 1040 -c 2 -i 15 -a 2 -x {2.0 6.0 0 ------- null}
h -t 0.651363094513941 -s 2 -d 0 -p exp -e 1040 -c 2 -i 15 -a 2 -x {2.0 6.0 -1 ------- null}
r -t 0.66216 -s 4 -d 0 -p tcp -e 1040 -c 4 -i 10 -a 4 -x {4.0 8.0 1 ------- null}
+ -t 0.66216 -s 0 -d 8 -p tcp -e 1040 -c 4 -i 10 -a 4 -x {4.0 8.0 1 ------- null}
- -t 0.66216 -s 0 -d 8 -p tcp -e 1040 -c 4 -i 10 -a 4 -x {4.0 8.0 1 ------- null}
h -t 0.66216 -s 0 -d 8 -p tcp -e 1040 -c 4 -i 10 -a 4 -x {4.0 8.0 -1 ------- null}
r -t 0.66616 -s 1 -d 0 -p tcp -e 1540 -c 1 -i 8 -a 1 -x {1.0 5.0 1 ------- null}
+ -t 0.66616 -s 0 -d 5 -p tcp -e 1540 -c 1 -i 8 -a 1 -x {1.0 5.0 1 ------- null}
- -t 0.66616 -s 0 -d 5 -p tcp -e 1540 -c 1 -i 8 -a 1 -x {1.0 5.0 1 ------- null}
h -t 0.66616 -s 0 -d 5 -p tcp -e 1540 -c 1 -i 8 -a 1 -x {1.0 5.0 -1 ------- null}
r -t 0.67048 -s 4 -d 0 -p tcp -e 1040 -c 4 -i 11 -a 4 -x {4.0 8.0 2 ------- null}
+ -t 0.67048 -s 0 -d 8 -p tcp -e 1040 -c 4 -i 11 -a 4 -x {4.0 8.0 2 ------- null}
r -t 0.67848 -s 1 -d 0 -p tcp -e 1540 -c 1 -i 9 -a 1 -x {1.0 5.0 2 ------- null}
+ -t 0.67848 -s 0 -d 5 -p tcp -e 1540 -c 1 -i 9 -a 1 -x {1.0 5.0 2 ------- null}
r -t 0.687896986743863 -s 3 -d 0 -p exp -e 1040 -c 3 -i 12 -a 3 -x {3.0 7.0 0 ------- null}
+ -t 0.687896986743863 -s 0 -d 7 -p exp -e 1040 -c 3 -i 12 -a 3 -x {3.0 7.0 0 ------- null}
- -t 0.687896986743863 -s 0 -d 7 -p exp -e 1040 -c 3 -i 12 -a 3 -x {3.0 7.0 0 ------- null}
h -t 0.687896986743863 -s 0 -d 7 -p exp -e 1040 -c 3 -i 12 -a 3 -x {3.0 7.0 -1 ------- null}
r -t 0.696216986743863 -s 3 -d 0 -p exp -e 1040 -c 3 -i 13 -a 3 -x {3.0 7.0 0 ------- null}
+ -t 0.696216986743863 -s 0 -d 7 -p exp -e 1040 -c 3 -i 13 -a 3 -x {3.0 7.0 0 ------- null}
r -t 0.701363094513941 -s 2 -d 0 -p exp -e 1040 -c 2 -i 14 -a 2 -x {2.0 6.0 0 ------- null}
+ -t 0.701363094513941 -s 0 -d 6 -p exp -e 1040 -c 2 -i 14 -a 2 -x {2.0 6.0 0 ------- null}
- -t 0.701363094513941 -s 0 -d 6 -p exp -e 1040 -c 2 -i 14 -a 2 -x {2.0 6.0 0 ------- null}
h -t 0.701363094513941 -s 0 -d 6 -p exp -e 1040 -c 2 -i 14 -a 2 -x {2.0 6.0 -1 ------- null}
- -t 0.70376 -s 0 -d 8 -p tcp -e 1040 -c 4 -i 11 -a 4 -x {4.0 8.0 2 ------- null}
h -t 0.70376 -s 0 -d 8 -p tcp -e 1040 -c 4 -i 11 -a 4 -x {4.0 8.0 -1 ------- null}
r -t 0.709683094513941 -s 2 -d 0 -p exp -e 1040 -c 2 -i 15 -a 2 -x {2.0 6.0 0 ------- null}
+ -t 0.709683094513941 -s 0 -d 6 -p exp -e 1040 -c 2 -i 15 -a 2 -x {2.0 6.0 0 ------- null}
- -t 0.72776 -s 0 -d 5 -p tcp -e 1540 -c 1 -i 9 -a 1 -x {1.0 5.0 2 ------- null}
h -t 0.72776 -s 0 -d 5 -p tcp -e 1540 -c 1 -i 9 -a 1 -x {1.0 5.0 -1 ------- null}
- -t 0.729496986743863 -s 0 -d 7 -p exp -e 1040 -c 3 -i 13 -a 3 -x {3.0 7.0 0 ------- null}
h -t 0.729496986743863 -s 0 -d 7 -p exp -e 1040 -c 3 -i 13 -a 3 -x {3.0 7.0 -1 ------- null}
- -t 0.742963094513941 -s 0 -d 6 -p exp -e 1040 -c 2 -i 15 -a 2 -x {2.0 6.0 0 ------- null}
h -t 0.742963094513941 -s 0 -d 6 -p exp -e 1040 -c 2 -i 15 -a 2 -x {2.0 6.0 -1 ------- null}
r -t 0.90376 -s 0 -d 8 -p tcp -e 1040 -c 4 -i 10 -a 4 -x {4.0 8.0 1 ------- null}
+ -t 0.90376 -s 8 -d 0 -p ack -e 40 -c 4 -i 16 -a 4 -x {8.0 4.0 1 ------- null}
- -t 0.90376 -s 8 -d 0 -p ack -e 40 -c 4 -i 16 -a 4 -x {8.0 4.0 1 ------- null}
h -t 0.90376 -s 8 -d 0 -p ack -e 40 -c 4 -i 16 -a 4 -x {8.0 4.0 -1 ------- null}
r -t 0.92776 -s 0 -d 5 -p tcp -e 1540 -c 1 -i 8 -a 1 -x {1.0 5.0 1 ------- null}
+ -t 0.92776 -s 5 -d 0 -p ack -e 40 -c 1 -i 17 -a 1 -x {5.0 1.0 1 ------- null}
- -t 0.92776 -s 5 -d 0 -p ack -e 40 -c 1 -i 17 -a 1 -x {5.0 1.0 1 ------- null}
h -t 0.92776 -s 5 -d 0 -p ack -e 40 -c 1 -i 17 -a 1 -x {5.0 1.0 -1 ------- null}
r -t 0.929496986743863 -s 0 -d 7 -p exp -e 1040 -c 3 -i 12 -a 3 -x {3.0 7.0 0 ------- null}
+ -t 0.929496986743863 -s 7 -d 0 -p ack -e 40 -c 3 -i 18 -a 3 -x {7.0 3.0 1 ------- null}
- -t 0.929496986743863 -s 7 -d 0 -p ack -e 40 -c 3 -i 18 -a 3 -x {7.0 3.0 1 ------- null}
h -t 0.929496986743863 -s 7 -d 0 -p ack -e 40 -c 3 -i 18 -a 3 -x {7.0 3.0 -1 ------- null}
r -t 0.942963094513941 -s 0 -d 6 -p exp -e 1040 -c 2 -i 14 -a 2 -x {2.0 6.0 0 ------- null}
+ -t 0.942963094513941 -s 6 -d 0 -p ack -e 40 -c 2 -i 19 -a 2 -x {6.0 2.0 1 ------- null}
- -t 0.942963094513941 -s 6 -d 0 -p ack -e 40 -c 2 -i 19 -a 2 -x {6.0 2.0 1 ------- null}
h -t 0.942963094513941 -s 6 -d 0 -p ack -e 40 -c 2 -i 19 -a 2 -x {6.0 2.0 -1 ------- null}
r -t 0.94536 -s 0 -d 8 -p tcp -e 1040 -c 4 -i 11 -a 4 -x {4.0 8.0 2 ------- null}
+ -t 0.94536 -s 8 -d 0 -p ack -e 40 -c 4 -i 20 -a 4 -x {8.0 4.0 2 ------- null}
- -t 0.94536 -s 8 -d 0 -p ack -e 40 -c 4 -i 20 -a 4 -x {8.0 4.0 2 ------- null}
h -t 0.94536 -s 8 -d 0 -p ack -e 40 -c 4 -i 20 -a 4 -x {8.0 4.0 -1 ------- null}
r -t 0.971096986743863 -s 0 -d 7 -p exp -e 1040 -c 3 -i 13 -a 3 -x {3.0 7.0 0 ------- null}
+ -t 0.971096986743863 -s 7 -d 0 -p ack -e 40 -c 3 -i 21 -a 3 -x {7.0 3.0 2 ------- null}
- -t 0.971096986743863 -s 7 -d 0 -p ack -e 40 -c 3 -i 21 -a 3 -x {7.0 3.0 2 ------- null}
h -t 0.971096986743863 -s 7 -d 0 -p ack -e 40 -c 3 -i 21 -a 3 -x {7.0 3.0 -1 ------- null}
r -t 0.984563094513941 -s 0 -d 6 -p exp -e 1040 -c 2 -i 15 -a 2 -x {2.0 6.0 0 ------- null}
+ -t 0.984563094513941 -s 6 -d 0 -p ack -e 40 -c 2 -i 22 -a 2 -x {6.0 2.0 2 ------- null}
- -t 0.984563094513941 -s 6 -d 0 -p ack -e 40 -c 2 -i 22 -a 2 -x {6.0 2.0 2 ------- null}
h -t 0.984563094513941 -s 6 -d 0 -p ack -e 40 -c 2 -i 22 -a 2 -x {6.0 2.0 -1 ------- null}
r -t 0.98936 -s 0 -d 5 -p tcp -e 1540 -c 1 -i 9 -a 1 -x {1.0 5.0 2 ------- null}
+ -t 0.98936 -s 5 -d 0 -p ack -e 40 -c 1 -i 23 -a 1 -x {5.0 1.0 2 ------- null}
- -t 0.98936 -s 5 -d 0 -p ack -e 40 -c 1 -i 23 -a 1 -x {5.0 1.0 2 ------- null}
h -t 0.98936 -s 5 -d 0 -p ack -e 40 -c 1 -i 23 -a 1 -x {5.0 1.0 -1 ------- null}
r -t 1.10536 -s 8 -d 0 -p ack -e 40 -c 4 -i 16 -a 4 -x {8.0 4.0 1 ------- null}
+ -t 1.10536 -s 0 -d 4 -p ack -e 40 -c 4 -i 16 -a 4 -x {8.0 4.0 1 ------- null}
- -t 1.10536 -s 0 -d 4 -p ack -e 40 -c 4 -i 16 -a 4 -x {8.0 4.0 1 ------- null}
h -t 1.10536 -s 0 -d 4 -p ack -e 40 -c 4 -i 16 -a 4 -x {8.0 4.0 -1 ------- null}
r -t 1.12936 -s 5 -d 0 -p ack -e 40 -c 1 -i 17 -a 1 -x {5.0 1.0 1 ------- null}
+ -t 1.12936 -s 0 -d 1 -p ack -e 40 -c 1 -i 17 -a 1 -x {5.0 1.0 1 ------- null}
- -t 1.12936 -s 0 -d 1 -p ack -e 40 -c 1 -i 17 -a 1 -x {5.0 1.0 1 ------- null}
h -t 1.12936 -s 0 -d 1 -p ack -e 40 -c 1 -i 17 -a 1 -x {5.0 1.0 -1 ------- null}
r -t 1.13109698674386 -s 7 -d 0 -p ack -e 40 -c 3 -i 18 -a 3 -x {7.0 3.0 1 ------- null}
+ -t 1.13109698674386 -s 0 -d 3 -p ack -e 40 -c 3 -i 18 -a 3 -x {7.0 3.0 1 ------- null}
- -t 1.13109698674386 -s 0 -d 3 -p ack -e 40 -c 3 -i 18 -a 3 -x {7.0 3.0 1 ------- null}
h -t 1.13109698674386 -s 0 -d 3 -p ack -e 40 -c 3 -i 18 -a 3 -x {7.0 3.0 -1 ------- null}
r -t 1.14456309451394 -s 6 -d 0 -p ack -e 40 -c 2 -i 19 -a 2 -x {6.0 2.0 1 ------- null}
+ -t 1.14456309451394 -s 0 -d 2 -p ack -e 40 -c 2 -i 19 -a 2 -x {6.0 2.0 1 ------- null}
- -t 1.14456309451394 -s 0 -d 2 -p ack -e 40 -c 2 -i 19 -a 2 -x {6.0 2.0 1 ------- null}
h -t 1.14456309451394 -s 0 -d 2 -p ack -e 40 -c 2 -i 19 -a 2 -x {6.0 2.0 -1 ------- null}
r -t 1.14696 -s 8 -d 0 -p ack -e 40 -c 4 -i 20 -a 4 -x {8.0 4.0 2 ------- null}
+ -t 1.14696 -s 0 -d 4 -p ack -e 40 -c 4 -i 20 -a 4 -x {8.0 4.0 2 ------- null}
- -t 1.14696 -s 0 -d 4 -p ack -e 40 -c 4 -i 20 -a 4 -x {8.0 4.0 2 ------- null}
h -t 1.14696 -s 0 -d 4 -p ack -e 40 -c 4 -i 20 -a 4 -x {8.0 4.0 -1 ------- null}
r -t 1.15568 -s 0 -d 4 -p ack -e 40 -c 4 -i 16 -a 4 -x {8.0 4.0 1 ------- null}
+ -t 1.15568 -s 4 -d 0 -p tcp -e 1040 -c 4 -i 24 -a 4 -x {4.0 8.0 3 ------- null}
- -t 1.15568 -s 4 -d 0 -p tcp -e 1040 -c 4 -i 24 -a 4 -x {4.0 8.0 3 ------- null}
h -t 1.15568 -s 4 -d 0 -p tcp -e 1040 -c 4 -i 24 -a 4 -x {4.0 8.0 -1 ------- null}
+ -t 1.15568 -s 4 -d 0 -p tcp -e 1040 -c 4 -i 25 -a 4 -x {4.0 8.0 4 ------- null}
- -t 1.164 -s 4 -d 0 -p tcp -e 1040 -c 4 -i 25 -a 4 -x {4.0 8.0 4 ------- null}
h -t 1.164 -s 4 -d 0 -p tcp -e 1040 -c 4 -i 25 -a 4 -x {4.0 8.0 -1 ------- null}
r -t 1.17269698674386 -s 7 -d 0 -p ack -e 40 -c 3 -i 21 -a 3 -x {7.0 3.0 2 ------- null}
+ -t 1.17269698674386 -s 0 -d 3 -p ack -e 40 -c 3 -i 21 -a 3 -x {7.0 3.0 2 ------- null}
- -t 1.17269698674386 -s 0 -d 3 -p ack -e 40 -c 3 -i 21 -a 3 -x {7.0 3.0 2 ------- null}
h -t 1.17269698674386 -s 0 -d 3 -p ack -e 40 -c 3 -i 21 -a 3 -x {7.0 3.0 -1 ------- null}
r -t 1.17968 -s 0 -d 1 -p ack -e 40 -c 1 -i 17 -a 1 -x {5.0 1.0 1 ------- null}
+ -t 1.17968 -s 1 -d 0 -p tcp -e 1540 -c 1 -i 26 -a 1 -x {1.0 5.0 3 ------- null}
- -t 1.17968 -s 1 -d 0 -p tcp -e 1540 -c 1 -i 26 -a 1 -x {1.0 5.0 3 ------- null}
h -t 1.17968 -s 1 -d 0 -p tcp -e 1540 -c 1 -i 26 -a 1 -x {1.0 5.0 -1 ------- null}
+ -t 1.17968 -s 1 -d 0 -p tcp -e 1540 -c 1 -i 27 -a 1 -x {1.0 5.0 4 ------- null}
r -t 1.18141698674386 -s 0 -d 3 -p ack -e 40 -c 3 -i 18 -a 3 -x {7.0 3.0 1 ------- null}
+ -t 1.18141698674386 -s 3 -d 0 -p exp -e 1040 -c 3 -i 28 -a 3 -x {3.0 7.0 0 ------- null}
- -t 1.18141698674386 -s 3 -d 0 -p exp -e 1040 -c 3 -i 28 -a 3 -x {3.0 7.0 0 ------- null}
h -t 1.18141698674386 -s 3 -d 0 -p exp -e 1040 -c 3 -i 28 -a 3 -x {3.0 7.0 -1 ------- null}
+ -t 1.18141698674386 -s 3 -d 0 -p exp -e 1040 -c 3 -i 29 -a 3 -x {3.0 7.0 0 ------- null}
r -t 1.18616309451394 -s 6 -d 0 -p ack -e 40 -c 2 -i 22 -a 2 -x {6.0 2.0 2 ------- null}
+ -t 1.18616309451394 -s 0 -d 2 -p ack -e 40 -c 2 -i 22 -a 2 -x {6.0 2.0 2 ------- null}
- -t 1.18616309451394 -s 0 -d 2 -p ack -e 40 -c 2 -i 22 -a 2 -x {6.0 2.0 2 ------- null}
h -t 1.18616309451394 -s 0 -d 2 -p ack -e 40 -c 2 -i 22 -a 2 -x {6.0 2.0 -1 ------- null}
- -t 1.18973698674386 -s 3 -d 0 -p exp -e 1040 -c 3 -i 29 -a 3 -x {3.0 7.0 0 ------- null}
h -t 1.18973698674386 -s 3 -d 0 -p exp -e 1040 -c 3 -i 29 -a 3 -x {3.0 7.0 -1 ------- null}
r -t 1.19096 -s 5 -d 0 -p ack -e 40 -c 1 -i 23 -a 1 -x {5.0 1.0 2 ------- null}
+ -t 1.19096 -s 0 -d 1 -p ack -e 40 -c 1 -i 23 -a 1 -x {5.0 1.0 2 ------- null}
- -t 1.19096 -s 0 -d 1 -p ack -e 40 -c 1 -i 23 -a 1 -x {5.0 1.0 2 ------- null}
h -t 1.19096 -s 0 -d 1 -p ack -e 40 -c 1 -i 23 -a 1 -x {5.0 1.0 -1 ------- null}
- -t 1.192 -s 1 -d 0 -p tcp -e 1540 -c 1 -i 27 -a 1 -x {1.0 5.0 4 ------- null}
h -t 1.192 -s 1 -d 0 -p tcp -e 1540 -c 1 -i 27 -a 1 -x {1.0 5.0 -1 ------- null}
r -t 1.19488309451394 -s 0 -d 2 -p ack -e 40 -c 2 -i 19 -a 2 -x {6.0 2.0 1 ------- null}
+ -t 1.19488309451394 -s 2 -d 0 -p exp -e 1040 -c 2 -i 30 -a 2 -x {2.0 6.0 0 ------- null}
- -t 1.19488309451394 -s 2 -d 0 -p exp -e 1040 -c 2 -i 30 -a 2 -x {2.0 6.0 0 ------- null}
h -t 1.19488309451394 -s 2 -d 0 -p exp -e 1040 -c 2 -i 30 -a 2 -x {2.0 6.0 -1 ------- null}
+ -t 1.19488309451394 -s 2 -d 0 -p exp -e 1040 -c 2 -i 31 -a 2 -x {2.0 6.0 0 ------- null}
r -t 1.19728 -s 0 -d 4 -p ack -e 40 -c 4 -i 20 -a 4 -x {8.0 4.0 2 ------- null}
+ -t 1.19728 -s 4 -d 0 -p tcp -e 1040 -c 4 -i 32 -a 4 -x {4.0 8.0 5 ------- null}
- -t 1.19728 -s 4 -d 0 -p tcp -e 1040 -c 4 -i 32 -a 4 -x {4.0 8.0 5 ------- null}
h -t 1.19728 -s 4 -d 0 -p tcp -e 1040 -c 4 -i 32 -a 4 -x {4.0 8.0 -1 ------- null}
+ -t 1.19728 -s 4 -d 0 -p tcp -e 1040 -c 4 -i 33 -a 4 -x {4.0 8.0 6 ------- null}
- -t 1.20320309451394 -s 2 -d 0 -p exp -e 1040 -c 2 -i 31 -a 2 -x {2.0 6.0 0 ------- null}
h -t 1.20320309451394 -s 2 -d 0 -p exp -e 1040 -c 2 -i 31 -a 2 -x {2.0 6.0 -1 ------- null}
- -t 1.2056 -s 4 -d 0 -p tcp -e 1040 -c 4 -i 33 -a 4 -x {4.0 8.0 6 ------- null}
h -t 1.2056 -s 4 -d 0 -p tcp -e 1040 -c 4 -i 33 -a 4 -x {4.0 8.0 -1 ------- null}
r -t 1.214 -s 4 -d 0 -p tcp -e 1040 -c 4 -i 24 -a 4 -x {4.0 8.0 3 ------- null}
+ -t 1.214 -s 0 -d 8 -p tcp -e 1040 -c 4 -i 24 -a 4 -x {4.0 8.0 3 ------- null}
- -t 1.214 -s 0 -d 8 -p tcp -e 1040 -c 4 -i 24 -a 4 -x {4.0 8.0 3 ------- null}
h -t 1.214 -s 0 -d 8 -p tcp -e 1040 -c 4 -i 24 -a 4 -x {4.0 8.0 -1 ------- null}
r -t 1.22232 -s 4 -d 0 -p tcp -e 1040 -c 4 -i 25 -a 4 -x {4.0 8.0 4 ------- null}
+ -t 1.22232 -s 0 -d 8 -p tcp -e 1040 -c 4 -i 25 -a 4 -x {4.0 8.0 4 ------- null}
r -t 1.22301698674386 -s 0 -d 3 -p ack -e 40 -c 3 -i 21 -a 3 -x {7.0 3.0 2 ------- null}
+ -t 1.22301698674386 -s 3 -d 0 -p exp -e 1040 -c 3 -i 34 -a 3 -x {3.0 7.0 0 ------- null}
- -t 1.22301698674386 -s 3 -d 0 -p exp -e 1040 -c 3 -i 34 -a 3 -x {3.0 7.0 0 ------- null}
h -t 1.22301698674386 -s 3 -d 0 -p exp -e 1040 -c 3 -i 34 -a 3 -x {3.0 7.0 -1 ------- null}
+ -t 1.22301698674386 -s 3 -d 0 -p exp -e 1040 -c 3 -i 35 -a 3 -x {3.0 7.0 0 ------- null}
- -t 1.23133698674386 -s 3 -d 0 -p exp -e 1040 -c 3 -i 35 -a 3 -x {3.0 7.0 0 ------- null}
h -t 1.23133698674386 -s 3 -d 0 -p exp -e 1040 -c 3 -i 35 -a 3 -x {3.0 7.0 -1 ------- null}
r -t 1.23648309451394 -s 0 -d 2 -p ack -e 40 -c 2 -i 22 -a 2 -x {6.0 2.0 2 ------- null}
+ -t 1.23648309451394 -s 2 -d 0 -p exp -e 1040 -c 2 -i 36 -a 2 -x {2.0 6.0 0 ------- null}
- -t 1.23648309451394 -s 2 -d 0 -p exp -e 1040 -c 2 -i 36 -a 2 -x {2.0 6.0 0 ------- null}
h -t 1.23648309451394 -s 2 -d 0 -p exp -e 1040 -c 2 -i 36 -a 2 -x {2.0 6.0 -1 ------- null}
+ -t 1.23648309451394 -s 2 -d 0 -p exp -e 1040 -c 2 -i 37 -a 2 -x {2.0 6.0 0 ------- null}
r -t 1.23973698674386 -s 3 -d 0 -p exp -e 1040 -c 3 -i 28 -a 3 -x {3.0 7.0 0 ------- null}
+ -t 1.23973698674386 -s 0 -d 7 -p exp -e 1040 -c 3 -i 28 -a 3 -x {3.0 7.0 0 ------- null}
- -t 1.23973698674386 -s 0 -d 7 -p exp -e 1040 -c 3 -i 28 -a 3 -x {3.0 7.0 0 ------- null}
h -t 1.23973698674386 -s 0 -d 7 -p exp -e 1040 -c 3 -i 28 -a 3 -x {3.0 7.0 -1 ------- null}
r -t 1.24128 -s 0 -d 1 -p ack -e 40 -c 1 -i 23 -a 1 -x {5.0 1.0 2 ------- null}
+ -t 1.24128 -s 1 -d 0 -p tcp -e 1540 -c 1 -i 38 -a 1 -x {1.0 5.0 5 ------- null}
- -t 1.24128 -s 1 -d 0 -p tcp -e 1540 -c 1 -i 38 -a 1 -x {1.0 5.0 5 ------- null}
h -t 1.24128 -s 1 -d 0 -p tcp -e 1540 -c 1 -i 38 -a 1 -x {1.0 5.0 -1 ------- null}
+ -t 1.24128 -s 1 -d 0 -p tcp -e 1540 -c 1 -i 39 -a 1 -x {1.0 5.0 6 ------- null}
r -t 1.242 -s 1 -d 0 -p tcp -e 1540 -c 1 -i 26 -a 1 -x {1.0 5.0 3 ------- null}
+ -t 1.242 -s 0 -d 5 -p tcp -e 1540 -c 1 -i 26 -a 1 -x {1.0 5.0 3 ------- null}
- -t 1.242 -s 0 -d 5 -p tcp -e 1540 -c 1 -i 26 -a 1 -x {1.0 5.0 3 ------- null}
h -t 1.242 -s 0 -d 5 -p tcp -e 1540 -c 1 -i 26 -a 1 -x {1.0 5.0 -1 ------- null}
- -t 1.24480309451394 -s 2 -d 0 -p exp -e 1040 -c 2 -i 37 -a 2 -x {2.0 6.0 0 ------- null}
h -t 1.24480309451394 -s 2 -d 0 -p exp -e 1040 -c 2 -i 37 -a 2 -x {2.0 6.0 -1 ------- null}
r -t 1.24805698674386 -s 3 -d 0 -p exp -e 1040 -c 3 -i 29 -a 3 -x {3.0 7.0 0 ------- null}
+ -t 1.24805698674386 -s 0 -d 7 -p exp -e 1040 -c 3 -i 29 -a 3 -x {3.0 7.0 0 ------- null}
r -t 1.25320309451394 -s 2 -d 0 -p exp -e 1040 -c 2 -i 30 -a 2 -x {2.0 6.0 0 ------- null}
+ -t 1.25320309451394 -s 0 -d 6 -p exp -e 1040 -c 2 -i 30 -a 2 -x {2.0 6.0 0 ------- null}
- -t 1.25320309451394 -s 0 -d 6 -p exp -e 1040 -c 2 -i 30 -a 2 -x {2.0 6.0 0 ------- null}
h -t 1.25320309451394 -s 0 -d 6 -p exp -e 1040 -c 2 -i 30 -a 2 -x {2.0 6.0 -1 ------- null}
- -t 1.2536 -s 1 -d 0 -p tcp -e 1540 -c 1 -i 39 -a 1 -x {1.0 5.0 6 ------- null}
h -t 1.2536 -s 1 -d 0 -p tcp -e 1540 -c 1 -i 39 -a 1 -x {1.0 5.0 -1 ------- null}
r -t 1.25432 -s 1 -d 0 -p tcp -e 1540 -c 1 -i 27 -a 1 -x {1.0 5.0 4 ------- null}
+ -t 1.25432 -s 0 -d 5 -p tcp -e 1540 -c 1 -i 27 -a 1 -x {1.0 5.0 4 ------- null}
r -t 1.2556 -s 4 -d 0 -p tcp -e 1040 -c 4 -i 32 -a 4 -x {4.0 8.0 5 ------- null}
+ -t 1.2556 -s 0 -d 8 -p tcp -e 1040 -c 4 -i 32 -a 4 -x {4.0 8.0 5 ------- null}
- -t 1.2556 -s 0 -d 8 -p tcp -e 1040 -c 4 -i 25 -a 4 -x {4.0 8.0 4 ------- null}
h -t 1.2556 -s 0 -d 8 -p tcp -e 1040 -c 4 -i 25 -a 4 -x {4.0 8.0 -1 ------- null}
r -t 1.26152309451394 -s 2 -d 0 -p exp -e 1040 -c 2 -i 31 -a 2 -x {2.0 6.0 0 ------- null}
+ -t 1.26152309451394 -s 0 -d 6 -p exp -e 1040 -c 2 -i 31 -a 2 -x {2.0 6.0 0 ------- null}
r -t 1.26392 -s 4 -d 0 -p tcp -e 1040 -c 4 -i 33 -a 4 -x {4.0 8.0 6 ------- null}
+ -t 1.26392 -s 0 -d 8 -p tcp -e 1040 -c 4 -i 33 -a 4 -x {4.0 8.0 6 ------- null}
r -t 1.28133698674386 -s 3 -d 0 -p exp -e 1040 -c 3 -i 34 -a 3 -x {3.0 7.0 0 ------- null}
+ -t 1.28133698674386 -s 0 -d 7 -p exp -e 1040 -c 3 -i 34 -a 3 -x {3.0 7.0 0 ------- null}
- -t 1.28133698674386 -s 0 -d 7 -p exp -e 1040 -c 3 -i 29 -a 3 -x {3.0 7.0 0 ------- null}
h -t 1.28133698674386 -s 0 -d 7 -p exp -e 1040 -c 3 -i 29 -a 3 -x {3.0 7.0 -1 ------- null}
r -t 1.28965698674386 -s 3 -d 0 -p exp -e 1040 -c 3 -i 35 -a 3 -x {3.0 7.0 0 ------- null}
+ -t 1.28965698674386 -s 0 -d 7 -p exp -e 1040 -c 3 -i 35 -a 3 -x {3.0 7.0 0 ------- null}
r -t 1.29480309451394 -s 2 -d 0 -p exp -e 1040 -c 2 -i 36 -a 2 -x {2.0 6.0 0 ------- null}
+ -t 1.29480309451394 -s 0 -d 6 -p exp -e 1040 -c 2 -i 36 -a 2 -x {2.0 6.0 0 ------- null}
- -t 1.29480309451394 -s 0 -d 6 -p exp -e 1040 -c 2 -i 31 -a 2 -x {2.0 6.0 0 ------- null}
h -t 1.29480309451394 -s 0 -d 6 -p exp -e 1040 -c 2 -i 31 -a 2 -x {2.0 6.0 -1 ------- null}
- -t 1.2972 -s 0 -d 8 -p tcp -e 1040 -c 4 -i 32 -a 4 -x {4.0 8.0 5 ------- null}
h -t 1.2972 -s 0 -d 8 -p tcp -e 1040 -c 4 -i 32 -a 4 -x {4.0 8.0 -1 ------- null}
r -t 1.30312309451394 -s 2 -d 0 -p exp -e 1040 -c 2 -i 37 -a 2 -x {2.0 6.0 0 ------- null}
+ -t 1.30312309451394 -s 0 -d 6 -p exp -e 1040 -c 2 -i 37 -a 2 -x {2.0 6.0 0 ------- null}
r -t 1.3036 -s 1 -d 0 -p tcp -e 1540 -c 1 -i 38 -a 1 -x {1.0 5.0 5 ------- null}
+ -t 1.3036 -s 0 -d 5 -p tcp -e 1540 -c 1 -i 38 -a 1 -x {1.0 5.0 5 ------- null}
- -t 1.3036 -s 0 -d 5 -p tcp -e 1540 -c 1 -i 27 -a 1 -x {1.0 5.0 4 ------- null}
h -t 1.3036 -s 0 -d 5 -p tcp -e 1540 -c 1 -i 27 -a 1 -x {1.0 5.0 -1 ------- null}
r -t 1.31592 -s 1 -d 0 -p tcp -e 1540 -c 1 -i 39 -a 1 -x {1.0 5.0 6 ------- null}
+ -t 1.31592 -s 0 -d 5 -p tcp -e 1540 -c 1 -i 39 -a 1 -x {1.0 5.0 6 ------- null}
- -t 1.32293698674386 -s 0 -d 7 -p exp -e 1040 -c 3 -i 34 -a 3 -x {3.0 7.0 0 ------- null}
h -t 1.32293698674386 -s 0 -d 7 -p exp -e 1040 -c 3 -i 34 -a 3 -x {3.0 7.0 -1 ------- null}
- -t 1.33640309451394 -s 0 -d 6 -p exp -e 1040 -c 2 -i 36 -a 2 -x {2.0 6.0 0 ------- null}
h -t 1.33640309451394 -s 0 -d 6 -p exp -e 1040 -c 2 -i 36 -a 2 -x {2.0 6.0 -1 ------- null}
- -t 1.3388 -s 0 -d 8 -p tcp -e 1040 -c 4 -i 33 -a 4 -x {4.0 8.0 6 ------- null}
h -t 1.3388 -s 0 -d 8 -p tcp -e 1040 -c 4 -i 33 -a 4 -x {4.0 8.0 -1 ------- null}
- -t 1.36453698674386 -s 0 -d 7 -p exp -e 1040 -c 3 -i 35 -a 3 -x {3.0 7.0 0 ------- null}
h -t 1.36453698674386 -s 0 -d 7 -p exp -e 1040 -c 3 -i 35 -a 3 -x {3.0 7.0 -1 ------- null}
- -t 1.3652 -s 0 -d 5 -p tcp -e 1540 -c 1 -i 38 -a 1 -x {1.0 5.0 5 ------- null}
h -t 1.3652 -s 0 -d 5 -p tcp -e 1540 -c 1 -i 38 -a 1 -x {1.0 5.0 -1 ------- null}
- -t 1.37800309451394 -s 0 -d 6 -p exp -e 1040 -c 2 -i 37 -a 2 -x {2.0 6.0 0 ------- null}
h -t 1.37800309451394 -s 0 -d 6 -p exp -e 1040 -c 2 -i 37 -a 2 -x {2.0 6.0 -1 ------- null}
- -t 1.4268 -s 0 -d 5 -p tcp -e 1540 -c 1 -i 39 -a 1 -x {1.0 5.0 6 ------- null}
h -t 1.4268 -s 0 -d 5 -p tcp -e 1540 -c 1 -i 39 -a 1 -x {1.0 5.0 -1 ------- null}
r -t 1.4556 -s 0 -d 8 -p tcp -e 1040 -c 4 -i 24 -a 4 -x {4.0 8.0 3 ------- null}
+ -t 1.4556 -s 8 -d 0 -p ack -e 40 -c 4 -i 40 -a 4 -x {8.0 4.0 3 ------- null}
- -t 1.4556 -s 8 -d 0 -p ack -e 40 -c 4 -i 40 -a 4 -x {8.0 4.0 3 ------- null}
h -t 1.4556 -s 8 -d 0 -p ack -e 40 -c 4 -i 40 -a 4 -x {8.0 4.0 -1 ------- null}
r -t 1.48133698674386 -s 0 -d 7 -p exp -e 1040 -c 3 -i 28 -a 3 -x {3.0 7.0 0 ------- null}
+ -t 1.48133698674386 -s 7 -d 0 -p ack -e 40 -c 3 -i 41 -a 3 -x {7.0 3.0 3 ------- null}
- -t 1.48133698674386 -s 7 -d 0 -p ack -e 40 -c 3 -i 41 -a 3 -x {7.0 3.0 3 ------- null}
h -t 1.48133698674386 -s 7 -d 0 -p ack -e 40 -c 3 -i 41 -a 3 -x {7.0 3.0 -1 ------- null}
r -t 1.49480309451394 -s 0 -d 6 -p exp -e 1040 -c 2 -i 30 -a 2 -x {2.0 6.0 0 ------- null}
+ -t 1.49480309451394 -s 6 -d 0 -p ack -e 40 -c 2 -i 42 -a 2 -x {6.0 2.0 3 ------- null}
- -t 1.49480309451394 -s 6 -d 0 -p ack -e 40 -c 2 -i 42 -a 2 -x {6.0 2.0 3 ------- null}
h -t 1.49480309451394 -s 6 -d 0 -p ack -e 40 -c 2 -i 42 -a 2 -x {6.0 2.0 -1 ------- null}
r -t 1.4972 -s 0 -d 8 -p tcp -e 1040 -c 4 -i 25 -a 4 -x {4.0 8.0 4 ------- null}
+ -t 1.4972 -s 8 -d 0 -p ack -e 40 -c 4 -i 43 -a 4 -x {8.0 4.0 4 ------- null}
- -t 1.4972 -s 8 -d 0 -p ack -e 40 -c 4 -i 43 -a 4 -x {8.0 4.0 4 ------- null}
h -t 1.4972 -s 8 -d 0 -p ack -e 40 -c 4 -i 43 -a 4 -x {8.0 4.0 -1 ------- null}
r -t 1.5036 -s 0 -d 5 -p tcp -e 1540 -c 1 -i 26 -a 1 -x {1.0 5.0 3 ------- null}
+ -t 1.5036 -s 5 -d 0 -p ack -e 40 -c 1 -i 44 -a 1 -x {5.0 1.0 3 ------- null}
- -t 1.5036 -s 5 -d 0 -p ack -e 40 -c 1 -i 44 -a 1 -x {5.0 1.0 3 ------- null}
h -t 1.5036 -s 5 -d 0 -p ack -e 40 -c 1 -i 44 -a 1 -x {5.0 1.0 -1 ------- null}
r -t 1.52293698674386 -s 0 -d 7 -p exp -e 1040 -c 3 -i 29 -a 3 -x {3.0 7.0 0 ------- null}
+ -t 1.52293698674386 -s 7 -d 0 -p ack -e 40 -c 3 -i 45 -a 3 -x {7.0 3.0 4 ------- null}
- -t 1.52293698674386 -s 7 -d 0 -p ack -e 40 -c 3 -i 45 -a 3 -x {7.0 3.0 4 ------- null}
h -t 1.52293698674386 -s 7 -d 0 -p ack -e 40 -c 3 -i 45 -a 3 -x {7.0 3.0 -1 ------- null}
r -t 1.53640309451394 -s 0 -d 6 -p exp -e 1040 -c 2 -i 31 -a 2 -x {2.0 6.0 0 ------- null}
+ -t 1.53640309451394 -s 6 -d 0 -p ack -e 40 -c 2 -i 46 -a 2 -x {6.0 2.0 4 ------- null}
- -t 1.53640309451394 -s 6 -d 0 -p ack -e 40 -c 2 -i 46 -a 2 -x {6.0 2.0 4 ------- null}
h -t 1.53640309451394 -s 6 -d 0 -p ack -e 40 -c 2 -i 46 -a 2 -x {6.0 2.0 -1 ------- null}
r -t 1.5388 -s 0 -d 8 -p tcp -e 1040 -c 4 -i 32 -a 4 -x {4.0 8.0 5 ------- null}
+ -t 1.5388 -s 8 -d 0 -p ack -e 40 -c 4 -i 47 -a 4 -x {8.0 4.0 5 ------- null}
- -t 1.5388 -s 8 -d 0 -p ack -e 40 -c 4 -i 47 -a 4 -x {8.0 4.0 5 ------- null}
h -t 1.5388 -s 8 -d 0 -p ack -e 40 -c 4 -i 47 -a 4 -x {8.0 4.0 -1 ------- null}