V -t * -v 1.0a5 -a 0
A -t * -n 1 -p 0 -o 0x7fffffff -c 30 -a 1
A -t * -h 1 -m 1073741823 -s 0
c -t * -i 4 -n Yellow
c -t * -i 1 -n Green
c -t * -i 2 -n Blue
c -t * -i 3 -n Red
n -t * -a 4 -s 4 -S UP -v circle -c green -i green
n -t * -a 0 -s 0 -S UP -v circle -c green -i green
n -t * -a 5 -s 5 -S UP -v circle -c blue -i blue
n -t * -a 1 -s 1 -S UP -v circle -c blue -i blue
n -t * -a 6 -s 6 -S UP -v circle -c red -i red
n -t * -a 2 -s 2 -S UP -v circle -c red -i red
n -t * -a 7 -s 7 -S UP -v circle -c yellow -i yellow
n -t * -a 3 -s 3 -S UP -v circle -c yellow -i yellow
l -t * -s 0 -d 1 -S UP -r 1000000 -D 0.050000000000000003 -c black -o right
l -t * -s 1 -d 2 -S UP -r 200000 -D 0.20000000000000001 -c black -o right-down
l -t * -s 2 -d 3 -S UP -r 1000000 -D 0.050000000000000003 -c black -o down
l -t * -s 3 -d 4 -S UP -r 200000 -D 0.20000000000000001 -c black -o left-down
l -t * -s 4 -d 5 -S UP -r 1000000 -D 0.050000000000000003 -c black -o left
l -t * -s 5 -d 6 -S UP -r 200000 -D 0.20000000000000001 -c black -o left-up
l -t * -s 6 -d 7 -S UP -r 1000000 -D 0.050000000000000003 -c black -o up
l -t * -s 7 -d 0 -S UP -r 200000 -D 0.20000000000000001 -c black -o right-up
+ -t 0.1 -s 0 -d 1 -p tcp -e 40 -c 1 -i 0 -a 1 -x {0.0 4.0 0 ------- null}
- -t 0.1 -s 0 -d 1 -p tcp -e 40 -c 1 -i 0 -a 1 -x {0.0 4.0 0 ------- null}
h -t 0.1 -s 0 -d 1 -p tcp -e 40 -c 1 -i 0 -a 1 -x {0.0 4.0 -1 ------- null}
+ -t 0.1 -s 3 -d 2 -p tcp -e 40 -c 4 -i 1 -a 4 -x {3.0 7.0 0 ------- null}
- -t 0.1 -s 3 -d 2 -p tcp -e 40 -c 4 -i 1 -a 4 -x {3.0 7.0 0 ------- null}
h -t 0.1 -s 3 -d 2 -p tcp -e 40 -c 4 -i 1 -a 4 -x {3.0 7.0 -1 ------- null}
+ -t 0.125736986743863 -s 2 -d 3 -p exp -e 40 -c 3 -i 2 -a 3 -x {2.0 6.0 0 ------- null}
- -t 0.125736986743863 -s 2 -d 3 -p exp -e 40 -c 3 -i 2 -a 3 -x {2.0 6.0 0 ------- null}
h -t 0.125736986743863 -s 2 -d 3 -p exp -e 40 -c 3 -i 2 -a 3 -x {2.0 6.0 -1 ------- null}
+ -t 0.139203094513941 -s 1 -d 2 -p exp -e 40 -c 2 -i 3 -a 2 -x {1.0 5.0 0 ------- null}
- -t 0.139203094513941 -s 1 -d 2 -p exp -e 40 -c 2 -i 3 -a 2 -x {1.0 5.0 0 ------- null}
h -t 0.139203094513941 -s 1 -d 2 -p exp -e 40 -c 2 -i 3 -a 2 -x {1.0 5.0 -1 ------- null}
r -t 0.15032 -s 0 -d 1 -p tcp -e 40 -c 1 -i 0 -a 1 -x {0.0 4.0 0 ------- null}
+ -t 0.15032 -s 1 -d 2 -p tcp -e 40 -c 1 -i 0 -a 1 -x {0.0 4.0 0 ------- null}
- -t 0.15032 -s 1 -d 2 -p tcp -e 40 -c 1 -i 0 -a 1 -x {0.0 4.0 0 ------- null}
h -t 0.15032 -s 1 -d 2 -p tcp -e 40 -c 1 -i 0 -a 1 -x {0.0 4.0 -1 ------- null}
r -t 0.15032 -s 3 -d 2 -p tcp -e 40 -c 4 -i 1 -a 4 -x {3.0 7.0 0 ------- null}
+ -t 0.15032 -s 2 -d 1 -p tcp -e 40 -c 4 -i 1 -a 4 -x {3.0 7.0 0 ------- null}
- -t 0.15032 -s 2 -d 1 -p tcp -e 40 -c 4 -i 1 -a 4 -x {3.0 7.0 0 ------- null}
h -t 0.15032 -s 2 -d 1 -p tcp -e 40 -c 4 -i 1 -a 4 -x {3.0 7.0 -1 ------- null}
r -t 0.176056986743863 -s 2 -d 3 -p exp -e 40 -c 3 -i 2 -a 3 -x {2.0 6.0 0 ------- null}
+ -t 0.176056986743863 -s 3 -d 4 -p exp -e 40 -c 3 -i 2 -a 3 -x {2.0 6.0 0 ------- null}
- -t 0.176056986743863 -s 3 -d 4 -p exp -e 40 -c 3 -i 2 -a 3 -x {2.0 6.0 0 ------- null}
h -t 0.176056986743863 -s 3 -d 4 -p exp -e 40 -c 3 -i 2 -a 3 -x {2.0 6.0 -1 ------- null}
r -t 0.340803094513941 -s 1 -d 2 -p exp -e 40 -c 2 -i 3 -a 2 -x {1.0 5.0 0 ------- null}
+ -t 0.340803094513941 -s 2 -d 3 -p exp -e 40 -c 2 -i 3 -a 2 -x {1.0 5.0 0 ------- null}
- -t 0.340803094513941 -s 2 -d 3 -p exp -e 40 -c 2 -i 3 -a 2 -x {1.0 5.0 0 ------- null}
h -t 0.340803094513941 -s 2 -d 3 -p exp -e 40 -c 2 -i 3 -a 2 -x {1.0 5.0 -1 ------- null}
r -t 0.35192 -s 1 -d 2 -p tcp -e 40 -c 1 -i 0 -a 1 -x {0.0 4.0 0 ------- null}
+ -t 0.35192 -s 2 -d 3 -p tcp -e 40 -c 1 -i 0 -a 1 -x {0.0 4.0 0 ------- null}
- -t 0.35192 -s 2 -d 3 -p tcp -e 40 -c 1 -i 0 -a 1 -x {0.0 4.0 0 ------- null}
h -t 0.35192 -s 2 -d 3 -p tcp -e 40 -c 1 -i 0 -a 1 -x {0.0 4.0 -1 ------- null}
r -t 0.35192 -s 2 -d 1 -p tcp -e 40 -c 4 -i 1 -a 4 -x {3.0 7.0 0 ------- null}
+ -t 0.35192 -s 1 -d 0 -p tcp -e 40 -c 4 -i 1 -a 4 -x {3.0 7.0 0 ------- null}
- -t 0.35192 -s 1 -d 0 -p tcp -e 40 -c 4 -i 1 -a 4 -x {3.0 7.0 0 ------- null}
h -t 0.35192 -s 1 -d 0 -p tcp -e 40 -c 4 -i 1 -a 4 -x {3.0 7.0 -1 ------- null}
r -t 0.377656986743863 -s 3 -d 4 -p exp -e 40 -c 3 -i 2 -a 3 -x {2.0 6.0 0 ------- null}
+ -t 0.377656986743863 -s 4 -d 5 -p exp -e 40 -c 3 -i 2 -a 3 -x {2.0 6.0 0 ------- null}
- -t 0.377656986743863 -s 4 -d 5 -p exp -e 40 -c 3 -i 2 -a 3 -x {2.0 6.0 0 ------- null}
h -t 0.377656986743863 -s 4 -d 5 -p exp -e 40 -c 3 -i 2 -a 3 -x {2.0 6.0 -1 ------- null}
r -t 0.391123094513941 -s 2 -d 3 -p exp -e 40 -c 2 -i 3 -a 2 -x {1.0 5.0 0 ------- null}
+ -t 0.391123094513941 -s 3 -d 4 -p exp -e 40 -c 2 -i 3 -a 2 -x {1.0 5.0 0 ------- null}
- -t 0.391123094513941 -s 3 -d 4 -p exp -e 40 -c 2 -i 3 -a 2 -x {1.0 5.0 0 ------- null}
h -t 0.391123094513941 -s 3 -d 4 -p exp -e 40 -c 2 -i 3 -a 2 -x {1.0 5.0 -1 ------- null}
r -t 0.40224 -s 2 -d 3 -p tcp -e 40 -c 1 -i 0 -a 1 -x {0.0 4.0 0 ------- null}
+ -t 0.40224 -s 3 -d 4 -p tcp -e 40 -c 1 -i 0 -a 1 -x {0.0 4.0 0 ------- null}
- -t 0.40224 -s 3 -d 4 -p tcp -e 40 -c 1 -i 0 -a 1 -x {0.0 4.0 0 ------- null}
h -t 0.40224 -s 3 -d 4 -p tcp -e 40 -c 1 -i 0 -a 1 -x {0.0 4.0 -1 ------- null}
r -t 0.40224 -s 1 -d 0 -p tcp -e 40 -c 4 -i 1 -a 4 -x {3.0 7.0 0 ------- null}
+ -t 0.40224 -s 0 -d 7 -p tcp -e 40 -c 4 -i 1 -a 4 -x {3.0 7.0 0 ------- null}
- -t 0.40224 -s 0 -d 7 -p tcp -e 40 -c 4 -i 1 -a 4 -x {3.0 7.0 0 ------- null}
h -t 0.40224 -s 0 -d 7 -p tcp -e 40 -c 4 -i 1 -a 4 -x {3.0 7.0 -1 ------- null}
r -t 0.427976986743863 -s 4 -d 5 -p exp -e 40 -c 3 -i 2 -a 3 -x {2.0 6.0 0 ------- null}
+ -t 0.427976986743863 -s 5 -d 6 -p exp -e 40 -c 3 -i 2 -a 3 -x {2.0 6.0 0 ------- null}
- -t 0.427976986743863 -s 5 -d 6 -p exp -e 40 -c 3 -i 2 -a 3 -x {2.0 6.0 0 ------- null}
h -t 0.427976986743863 -s 5 -d 6 -p exp -e 40 -c 3 -i 2 -a 3 -x {2.0 6.0 -1 ------- null}
r -t 0.592723094513941 -s 3 -d 4 -p exp -e 40 -c 2 -i 3 -a 2 -x {1.0 5.0 0 ------- null}
+ -t 0.592723094513941 -s 4 -d 5 -p exp -e 40 -c 2 -i 3 -a 2 -x {1.0 5.0 0 ------- null}
- -t 0.592723094513941 -s 4 -d 5 -p exp -e 40 -c 2 -i 3 -a 2 -x {1.0 5.0 0 ------- null}
h -t 0.592723094513941 -s 4 -d 5 -p exp -e 40 -c 2 -i 3 -a 2 -x {1.0 5.0 -1 ------- null}
r -t 0.60384 -s 3 -d 4 -p tcp -e 40 -c 1 -i 0 -a 1 -x {0.0 4.0 0 ------- null}
+ -t 0.60384 -s 4 -d 3 -p ack -e 40 -c 1 -i 4 -a 1 -x {4.0 0.0 0 ------- null}
- -t 0.60384 -s 4 -d 3 -p ack -e 40 -c 1 -i 4 -a 1 -x {4.0 0.0 0 ------- null}
h -t 0.60384 -s 4 -d 3 -p ack -e 40 -c 1 -i 4 -a 1 -x {4.0 0.0 -1 ------- null}
r -t 0.60384 -s 0 -d 7 -p tcp -e 40 -c 4 -i 1 -a 4 -x {3.0 7.0 0 ------- null}
+ -t 0.60384 -s 7 -d 0 -p ack -e 40 -c 4 -i 5 -a 4 -x {7.0 3.0 0 ------- null}
- -t 0.60384 -s 7 -d 0 -p ack -e 40 -c 4 -i 5 -a 4 -x {7.0 3.0 0 ------- null}
h -t 0.60384 -s 7 -d 0 -p ack -e 40 -c 4 -i 5 -a 4 -x {7.0 3.0 -1 ------- null}
r -t 0.629576986743863 -s 5 -d 6 -p exp -e 40 -c 3 -i 2 -a 3 -x {2.0 6.0 0 ------- null}
+ -t 0.629576986743863 -s 6 -d 7 -p ack -e 40 -c 3 -i 6 -a 3 -x {6.0 2.0 0 ------- null}
- -t 0.629576986743863 -s 6 -d 7 -p ack -e 40 -c 3 -i 6 -a 3 -x {6.0 2.0 0 ------- null}
h -t 0.629576986743863 -s 6 -d 7 -p ack -e 40 -c 3 -i 6 -a 3 -x {6.0 2.0 -1 ------- null}
r -t 0.643043094513941 -s 4 -d 5 -p exp -e 40 -c 2 -i 3 -a 2 -x {1.0 5.0 0 ------- null}
+ -t 0.643043094513941 -s 5 -d 6 -p ack -e 40 -c 2 -i 7 -a 2 -x {5.0 1.0 0 ------- null}
- -t 0.643043094513941 -s 5 -d 6 -p ack -e 40 -c 2 -i 7 -a 2 -x {5.0 1.0 0 ------- null}
h -t 0.643043094513941 -s 5 -d 6 -p ack -e 40 -c 2 -i 7 -a 2 -x {5.0 1.0 -1 ------- null}
r -t 0.679896986743863 -s 6 -d 7 -p ack -e 40 -c 3 -i 6 -a 3 -x {6.0 2.0 0 ------- null}
+ -t 0.679896986743863 -s 7 -d 0 -p ack -e 40 -c 3 -i 6 -a 3 -x {6.0 2.0 0 ------- null}
- -t 0.679896986743863 -s 7 -d 0 -p ack -e 40 -c 3 -i 6 -a 3 -x {6.0 2.0 0 ------- null}
h -t 0.679896986743863 -s 7 -d 0 -p ack -e 40 -c 3 -i 6 -a 3 -x {6.0 2.0 -1 ------- null}
r -t 0.80544 -s 4 -d 3 -p ack -e 40 -c 1 -i 4 -a 1 -x {4.0 0.0 0 ------- null}
+ -t 0.80544 -s 3 -d 2 -p ack -e 40 -c 1 -i 4 -a 1 -x {4.0 0.0 0 ------- null}
- -t 0.80544 -s 3 -d 2 -p ack -e 40 -c 1 -i 4 -a 1 -x {4.0 0.0 0 ------- null}
h -t 0.80544 -s 3 -d 2 -p ack -e 40 -c 1 -i 4 -a 1 -x {4.0 0.0 -1 ------- null}
r -t 0.80544 -s 7 -d 0 -p ack -e 40 -c 4 -i 5 -a 4 -x {7.0 3.0 0 ------- null}
+ -t 0.80544 -s 0 -d 1 -p ack -e 40 -c 4 -i 5 -a 4 -x {7.0 3.0 0 ------- null}
- -t 0.80544 -s 0 -d 1 -p ack -e 40 -c 4 -i 5 -a 4 -x {7.0 3.0 0 ------- null}
h -t 0.80544 -s 0 -d 1 -p ack -e 40 -c 4 -i 5 -a 4 -x {7.0 3.0 -1 ------- null}
r -t 0.844643094513941 -s 5 -d 6 -p ack -e 40 -c 2 -i 7 -a 2 -x {5.0 1.0 0 ------- null}
+ -t 0.844643094513941 -s 6 -d 7 -p ack -e 40 -c 2 -i 7 -a 2 -x {5.0 1.0 0 ------- null}
- -t 0.844643094513941 -s 6 -d 7 -p ack -e 40 -c 2 -i 7 -a 2 -x {5.0 1.0 0 ------- null}
h -t 0.844643094513941 -s 6 -d 7 -p ack -e 40 -c 2 -i 7 -a 2 -x {5.0 1.0 -1 ------- null}
r -t 0.85576 -s 3 -d 2 -p ack -e 40 -c 1 -i 4 -a 1 -x {4.0 0.0 0 ------- null}
+ -t 0.85576 -s 2 -d 1 -p ack -e 40 -c 1 -i 4 -a 1 -x {4.0 0.0 0 ------- null}
- -t 0.85576 -s 2 -d 1 -p ack -e 40 -c 1 -i 4 -a 1 -x {4.0 0.0 0 ------- null}
h -t 0.85576 -s 2 -d 1 -p ack -e 40 -c 1 -i 4 -a 1 -x {4.0 0.0 -1 ------- null}
r -t 0.85576 -s 0 -d 1 -p ack -e 40 -c 4 -i 5 -a 4 -x {7.0 3.0 0 ------- null}
+ -t 0.85576 -s 1 -d 2 -p ack -e 40 -c 4 -i 5 -a 4 -x {7.0 3.0 0 ------- null}
- -t 0.85576 -s 1 -d 2 -p ack -e 40 -c 4 -i 5 -a 4 -x {7.0 3.0 0 ------- null}
h -t 0.85576 -s 1 -d 2 -p ack -e 40 -c 4 -i 5 -a 4 -x {7.0 3.0 -1 ------- null}
r -t 0.881496986743863 -s 7 -d 0 -p ack -e 40 -c 3 -i 6 -a 3 -x {6.0 2.0 0 ------- null}
+ -t 0.881496986743863 -s 0 -d 1 -p ack -e 40 -c 3 -i 6 -a 3 -x {6.0 2.0 0 ------- null}
- -t 0.881496986743863 -s 0 -d 1 -p ack -e 40 -c 3 -i 6 -a 3 -x {6.0 2.0 0 ------- null}
h -t 0.881496986743863 -s 0 -d 1 -p ack -e 40 -c 3 -i 6 -a 3 -x {6.0 2.0 -1 ------- null}
r -t 0.894963094513941 -s 6 -d 7 -p ack -e 40 -c 2 -i 7 -a 2 -x {5.0 1.0 0 ------- null}
+ -t 0.894963094513941 -s 7 -d 0 -p ack -e 40 -c 2 -i 7 -a 2 -x {5.0 1.0 0 ------- null}
- -t 0.894963094513941 -s 7 -d 0 -p ack -e 40 -c 2 -i 7 -a 2 -x {5.0 1.0 0 ------- null}
h -t 0.894963094513941 -s 7 -d 0 -p ack -e 40 -c 2 -i 7 -a 2 -x {5.0 1.0 -1 ------- null}
r -t 0.931816986743863 -s 0 -d 1 -p ack -e 40 -c 3 -i 6 -a 3 -x {6.0 2.0 0 ------- null}
+ -t 0.931816986743863 -s 1 -d 2 -p ack -e 40 -c 3 -i 6 -a 3 -x {6.0 2.0 0 ------- null}
- -t 0.931816986743863 -s 1 -d 2 -p ack -e 40 -c 3 -i 6 -a 3 -x {6.0 2.0 0 ------- null}
h -t 0.931816986743863 -s 1 -d 2 -p ack -e 40 -c 3 -i 6 -a 3 -x {6.0 2.0 -1 ------- null}
r -t 1.05736 -s 2 -d 1 -p ack -e 40 -c 1 -i 4 -a 1 -x {4.0 0.0 0 ------- null}
+ -t 1.05736 -s 1 -d 0 -p ack -e 40 -c 1 -i 4 -a 1 -x {4.0 0.0 0 ------- null}
- -t 1.05736 -s 1 -d 0 -p ack -e 40 -c 1 -i 4 -a 1 -x {4.0 0.0 0 ------- null}
h -t 1.05736 -s 1 -d 0 -p ack -e 40 -c 1 -i 4 -a 1 -x {4.0 0.0 -1 ------- null}
r -t 1.05736 -s 1 -d 2 -p ack -e 40 -c 4 -i 5 -a 4 -x {7.0 3.0 0 ------- null}
+ -t 1.05736 -s 2 -d 3 -p ack -e 40 -c 4 -i 5 -a 4 -x {7.0 3.0 0 ------- null}
- -t 1.05736 -s 2 -d 3 -p ack -e 40 -c 4 -i 5 -a 4 -x {7.0 3.0 0 ------- null}
h -t 1.05736 -s 2 -d 3 -p ack -e 40 -c 4 -i 5 -a 4 -x {7.0 3.0 -1 ------- null}
r -t 1.09656309451394 -s 7 -d 0 -p ack -e 40 -c 2 -i 7 -a 2 -x {5.0 1.0 0 ------- null}
+ -t 1.09656309451394 -s 0 -d 1 -p ack -e 40 -c 2 -i 7 -a 2 -x {5.0 1.0 0 ------- null}
- -t 1.09656309451394 -s 0 -d 1 -p ack -e 40 -c 2 -i 7 -a 2 -x {5.0 1.0 0 ------- null}
h -t 1.09656309451394 -s 0 -d 1 -p ack -e 40 -c 2 -i 7 -a 2 -x {5.0 1.0 -1 ------- null}
r -t 1.10768 -s 1 -d 0 -p ack -e 40 -c 1 -i 4 -a 1 -x {4.0 0.0 0 ------- null}
+ -t 1.10768 -s 0 -d 1 -p tcp -e 1540 -c 1 -i 8 -a 1 -x {0.0 4.0 1 ------- null}
- -t 1.10768 -s 0 -d 1 -p tcp -e 1540 -c 1 -i 8 -a 1 -x {0.0 4.0 1 ------- null}
h -t 1.10768 -s 0 -d 1 -p tcp -e 1540 -c 1 -i 8 -a 1 -x {0.0 4.0 -1 ------- null}
+ -t 1.10768 -s 0 -d 1 -p tcp -e 1540 -c 1 -i 9 -a 1 -x {0.0 4.0 2 ------- null}
r -t 1.10768 -s 2 -d 3 -p ack -e 40 -c 4 -i 5 -a 4 -x {7.0 3.0 0 ------- null}
+ -t 1.10768 -s 3 -d 2 -p tcp -e 1040 -c 4 -i 10 -a 4 -x {3.0 7.0 1 ------- null}
- -t 1.10768 -s 3 -d 2 -p tcp -e 1040 -c 4 -i 10 -a 4 -x {3.0 7.0 1 ------- null}
h -t 1.10768 -s 3 -d 2 -p tcp -e 1040 -c 4 -i 10 -a 4 -x {3.0 7.0 -1 ------- null}
+ -t 1.10768 -s 3 -d 2 -p tcp -e 1040 -c 4 -i 11 -a 4 -x {3.0 7.0 2 ------- null}
- -t 1.116 -s 3 -d 2 -p tcp -e 1040 -c 4 -i 11 -a 4 -x {3.0 7.0 2 ------- null}
h -t 1.116 -s 3 -d 2 -p tcp -e 1040 -c 4 -i 11 -a 4 -x {3.0 7.0 -1 ------- null}
- -t 1.12 -s 0 -d 1 -p tcp -e 1540 -c 1 -i 9 -a 1 -x {0.0 4.0 2 ------- null}
h -t 1.12 -s 0 -d 1 -p tcp -e 1540 -c 1 -i 9 -a 1 -x {0.0 4.0 -1 ------- null}
r -t 1.13341698674386 -s 1 -d 2 -p ack -e 40 -c 3 -i 6 -a 3 -x {6.0 2.0 0 ------- null}
+ -t 1.13341698674386 -s 2 -d 3 -p exp -e 1040 -c 3 -i 12 -a 3 -x {2.0 6.0 0 ------- null}
- -t 1.13341698674386 -s 2 -d 3 -p exp -e 1040 -c 3 -i 12 -a 3 -x {2.0 6.0 0 ------- null}
h -t 1.13341698674386 -s 2 -d 3 -p exp -e 1040 -c 3 -i 12 -a 3 -x {2.0 6.0 -1 ------- null}
+ -t 1.13341698674386 -s 2 -d 3 -p exp -e 1040 -c 3 -i 13 -a 3 -x {2.0 6.0 0 ------- null}
- -t 1.14173698674386 -s 2 -d 3 -p exp -e 1040 -c 3 -i 13 -a 3 -x {2.0 6.0 0 ------- null}
h -t 1.14173698674386 -s 2 -d 3 -p exp -e 1040 -c 3 -i 13 -a 3 -x {2.0 6.0 -1 ------- null}
r -t 1.14688309451394 -s 0 -d 1 -p ack -e 40 -c 2 -i 7 -a 2 -x {5.0 1.0 0 ------- null}
+ -t 1.14688309451394 -s 1 -d 2 -p exp -e 1040 -c 2 -i 14 -a 2 -x {1.0 5.0 0 ------- null}
- -t 1.14688309451394 -s 1 -d 2 -p exp -e 1040 -c 2 -i 14 -a 2 -x {1.0 5.0 0 ------- null}
h -t 1.14688309451394 -s 1 -d 2 -p exp -e 1040 -c 2 -i 14 -a 2 -x {1.0 5.0 -1 ------- null}
+ -t 1.14688309451394 -s 1 -d 2 -p exp -e 1040 -c 2 -i 15 -a 2 -x {1.0 5.0 0 ------- null}
r -t 1.166 -s 3 -d 2 -p tcp -e 1040 -c 4 -i 10 -a 4 -x {3.0 7.0 1 ------- null}
+ -t 1.166 -s 2 -d 1 -p tcp -e 1040 -c 4 -i 10 -a 4 -x {3.0 7.0 1 ------- null}
- -t 1.166 -s 2 -d 1 -p tcp -e 1040 -c 4 -i 10 -a 4 -x {3.0 7.0 1 ------- null}
h -t 1.166 -s 2 -d 1 -p tcp -e 1040 -c 4 -i 10 -a 4 -x {3.0 7.0 -1 ------- null}
r -t 1.17 -s 0 -d 1 -p tcp -e 1540 -c 1 -i 8 -a 1 -x {0.0 4.0 1 ------- null}
+ -t 1.17 -s 1 -d 2 -p tcp -e 1540 -c 1 -i 8 -a 1 -x {0.0 4.0 1 ------- null}
r -t 1.17432 -s 3 -d 2 -p tcp -e 1040 -c 4 -i 11 -a 4 -x {3.0 7.0 2 ------- null}
+ -t 1.17432 -s 2 -d 1 -p tcp -e 1040 -c 4 -i 11 -a 4 -x {3.0 7.0 2 ------- null}
r -t 1.18232 -s 0 -d 1 -p tcp -e 1540 -c 1 -i 9 -a 1 -x {0.0 4.0 2 ------- null}
+ -t 1.18232 -s 1 -d 2 -p tcp -e 1540 -c 1 -i 9 -a 1 -x {0.0 4.0 2 ------- null}
- -t 1.18848309451394 -s 1 -d 2 -p exp -e 1040 -c 2 -i 15 -a 2 -x {1.0 5.0 0 ------- null}
h -t 1.18848309451394 -s 1 -d 2 -p exp -e 1040 -c 2 -i 15 -a 2 -x {1.0 5.0 -1 ------- null}
r -t 1.19173698674386 -s 2 -d 3 -p exp -e 1040 -c 3 -i 12 -a 3 -x {2.0 6.0 0 ------- null}
+ -t 1.19173698674386 -s 3 -d 4 -p exp -e 1040 -c 3 -i 12 -a 3 -x {2.0 6.0 0 ------- null}
- -t 1.19173698674386 -s 3 -d 4 -p exp -e 1040 -c 3 -i 12 -a 3 -x {2.0 6.0 0 ------- null}
h -t 1.19173698674386 -s 3 -d 4 -p exp -e 1040 -c 3 -i 12 -a 3 -x {2.0 6.0 -1 ------- null}
r -t 1.20005698674386 -s 2 -d 3 -p exp -e 1040 -c 3 -i 13 -a 3 -x {2.0 6.0 0 ------- null}
+ -t 1.20005698674386 -s 3 -d 4 -p exp -e 1040 -c 3 -i 13 -a 3 -x {2.0 6.0 0 ------- null}
- -t 1.2076 -s 2 -d 1 -p tcp -e 1040 -c 4 -i 11 -a 4 -x {3.0 7.0 2 ------- null}
h -t 1.2076 -s 2 -d 1 -p tcp -e 1040 -c 4 -i 11 -a 4 -x {3.0 7.0 -1 ------- null}
- -t 1.23008309451394 -s 1 -d 2 -p tcp -e 1540 -c 1 -i 8 -a 1 -x {0.0 4.0 1 ------- null}
h -t 1.23008309451394 -s 1 -d 2 -p tcp -e 1540 -c 1 -i 8 -a 1 -x {0.0 4.0 -1 ------- null}
- -t 1.23333698674386 -s 3 -d 4 -p exp -e 1040 -c 3 -i 13 -a 3 -x {2.0 6.0 0 ------- null}
h -t 1.23333698674386 -s 3 -d 4 -p exp -e 1040 -c 3 -i 13 -a 3 -x {2.0 6.0 -1 ------- null}
- -t 1.29168309451394 -s 1 -d 2 -p tcp -e 1540 -c 1 -i 9 -a 1 -x {0.0 4.0 2 ------- null}
h -t 1.29168309451394 -s 1 -d 2 -p tcp -e 1540 -c 1 -i 9 -a 1 -x {0.0 4.0 -1 ------- null}
r -t 1.38848309451394 -s 1 -d 2 -p exp -e 1040 -c 2 -i 14 -a 2 -x {1.0 5.0 0 ------- null}
+ -t 1.38848309451394 -s 2 -d 3 -p exp -e 1040 -c 2 -i 14 -a 2 -x {1.0 5.0 0 ------- null}
- -t 1.38848309451394 -s 2 -d 3 -p exp -e 1040 -c 2 -i 14 -a 2 -x {1.0 5.0 0 ------- null}
h -t 1.38848309451394 -s 2 -d 3 -p exp -e 1040 -c 2 -i 14 -a 2 -x {1.0 5.0 -1 ------- null}
r -t 1.4076 -s 2 -d 1 -p tcp -e 1040 -c 4 -i 10 -a 4 -x {3.0 7.0 1 ------- null}
+ -t 1.4076 -s 1 -d 0 -p tcp -e 1040 -c 4 -i 10 -a 4 -x {3.0 7.0 1 ------- null}
- -t 1.4076 -s 1 -d 0 -p tcp -e 1040 -c 4 -i 10 -a 4 -x {3.0 7.0 1 ------- null}
h -t 1.4076 -s 1 -d 0 -p tcp -e 1040 -c 4 -i 10 -a 4 -x {3.0 7.0 -1 ------- null}
r -t 1.43008309451394 -s 1 -d 2 -p exp -e 1040 -c 2 -i 15 -a 2 -x {1.0 5.0 0 ------- null}
+ -t 1.43008309451394 -s 2 -d 3 -p exp -e 1040 -c 2 -i 15 -a 2 -x {1.0 5.0 0 ------- null}
- -t 1.43008309451394 -s 2 -d 3 -p exp -e 1040 -c 2 -i 15 -a 2 -x {1.0 5.0 0 ------- null}
h -t 1.43008309451394 -s 2 -d 3 -p exp -e 1040 -c 2 -i 15 -a 2 -x {1.0 5.0 -1 ------- null}
r -t 1.43333698674386 -s 3 -d 4 -p exp -e 1040 -c 3 -i 12 -a 3 -x {2.0 6.0 0 ------- null}
+ -t 1.43333698674386 -s 4 -d 5 -p exp -e 1040 -c 3 -i 12 -a 3 -x {2.0 6.0 0 ------- null}
- -t 1.43333698674386 -s 4 -d 5 -p exp -e 1040 -c 3 -i 12 -a 3 -x {2.0 6.0 0 ------- null}
h -t 1.43333698674386 -s 4 -d 5 -p exp -e 1040 -c 3 -i 12 -a 3 -x {2.0 6.0 -1 ------- null}
r -t 1.44680309451394 -s 2 -d 3 -p exp -e 1040 -c 2 -i 14 -a 2 -x {1.0 5.0 0 ------- null}
+ -t 1.44680309451394 -s 3 -d 4 -p exp -e 1040 -c 2 -i 14 -a 2 -x {1.0 5.0 0 ------- null}
- -t 1.44680309451394 -s 3 -d 4 -p exp -e 1040 -c 2 -i 14 -a 2 -x {1.0 5.0 0 ------- null}
h -t 1.44680309451394 -s 3 -d 4 -p exp -e 1040 -c 2 -i 14 -a 2 -x {1.0 5.0 -1 ------- null}
r -t 1.4492 -s 2 -d 1 -p tcp -e 1040 -c 4 -i 11 -a 4 -x {3.0 7.0 2 ------- null}
+ -t 1.4492 -s 1 -d 0 -p tcp -e 1040 -c 4 -i 11 -a 4 -x {3.0 7.0 2 ------- null}
- -t 1.4492 -s 1 -d 0 -p tcp -e 1040 -c 4 -i 11 -a 4 -x {3.0 7.0 2 ------- null}
h -t 1.4492 -s 1 -d 0 -p tcp -e 1040 -c 4 -i 11 -a 4 -x {3.0 7.0 -1 ------- null}
r -t 1.46592 -s 1 -d 0 -p tcp -e 1040 -c 4 -i 10 -a 4 -x {3.0 7.0 1 ------- null}
+ -t 1.46592 -s 0 -d 7 -p tcp -e 1040 -c 4 -i 10 -a 4 -x {3.0 7.0 1 ------- null}
- -t 1.46592 -s 0 -d 7 -p tcp -e 1040 -c 4 -i 10 -a 4 -x {3.0 7.0 1 ------- null}
h -t 1.46592 -s 0 -d 7 -p tcp -e 1040 -c 4 -i 10 -a 4 -x {3.0 7.0 -1 ------- null}
r -t 1.47493698674386 -s 3 -d 4 -p exp -e 1040 -c 3 -i 13 -a 3 -x {2.0 6.0 0 ------- null}
+ -t 1.47493698674386 -s 4 -d 5 -p exp -e 1040 -c 3 -i 13 -a 3 -x {2.0 6.0 0 ------- null}
- -t 1.47493698674386 -s 4 -d 5 -p exp -e 1040 -c 3 -i 13 -a 3 -x {2.0 6.0 0 ------- null}
h -t 1.47493698674386 -s 4 -d 5 -p exp -e 1040 -c 3 -i 13 -a 3 -x {2.0 6.0 -1 ------- null}
r -t 1.48840309451394 -s 2 -d 3 -p exp -e 1040 -c 2 -i 15 -a 2 -x {1.0 5.0 0 ------- null}
+ -t 1.48840309451394 -s 3 -d 4 -p exp -e 1040 -c 2 -i 15 -a 2 -x {1.0 5.0 0 ------- null}
- -t 1.48840309451394 -s 3 -d 4 -p exp -e 1040 -c 2 -i 15 -a 2 -x {1.0 5.0 0 ------- null}
h -t 1.48840309451394 -s 3 -d 4 -p exp -e 1040 -c 2 -i 15 -a 2 -x {1.0 5.0 -1 ------- null}
r -t 1.49165698674386 -s 4 -d 5 -p exp -e 1040 -c 3 -i 12 -a 3 -x {2.0 6.0 0 ------- null}
+ -t 1.49165698674386 -s 5 -d 6 -p exp -e 1040 -c 3 -i 12 -a 3 -x {2.0 6.0 0 ------- null}
- -t 1.49165698674386 -s 5 -d 6 -p exp -e 1040 -c 3 -i 12 -a 3 -x {2.0 6.0 0 ------- null}
h -t 1.49165698674386 -s 5 -d 6 -p exp -e 1040 -c 3 -i 12 -a 3 -x {2.0 6.0 -1 ------- null}
r -t 1.49168309451394 -s 1 -d 2 -p tcp -e 1540 -c 1 -i 8 -a 1 -x {0.0 4.0 1 ------- null}
+ -t 1.49168309451394 -s 2 -d 3 -p tcp -e 1540 -c 1 -i 8 -a 1 -x {0.0 4.0 1 ------- null}
- -t 1.49168309451394 -s 2 -d 3 -p tcp -e 1540 -c 1 -i 8 -a 1 -x {0.0 4.0 1 ------- null}
h -t 1.49168309451394 -s 2 -d 3 -p tcp -e 1540 -c 1 -i 8 -a 1 -x {0.0 4.0 -1 ------- null}
r -t 1.50752 -s 1 -d 0 -p tcp -e 1040 -c 4 -i 11 -a 4 -x {3.0 7.0 2 ------- null}
+ -t 1.50752 -s 0 -d 7 -p tcp -e 1040 -c 4 -i 11 -a 4 -x {3.0 7.0 2 ------- null}
- -t 1.50752 -s 0 -d 7 -p tcp -e 1040 -c 4 -i 11 -a 4 -x {3.0 7.0 2 ------- null}
h -t 1.50752 -s 0 -d 7 -p tcp -e 1040 -c 4 -i 11 -a 4 -x {3.0 7.0 -1 ------- null}
r -t 1.53325698674386 -s 4 -d 5 -p exp -e 1040 -c 3 -i 13 -a 3 -x {2.0 6.0 0 ------- null}
+ -t 1.53325698674386 -s 5 -d 6 -p exp -e 1040 -c 3 -i 13 -a 3 -x {2.0 6.0 0 ------- null}
- -t 1.53325698674386 -s 5 -d 6 -p exp -e 1040 -c 3 -i 13 -a 3 -x {2.0 6.0 0 ------- null}
h -t 1.53325698674386 -s 5 -d 6 -p exp -e 1040 -c 3 -i 13 -a 3 -x {2.0 6.0 -1 ------- null}
r -t 1.55328309451394 -s 1 -d 2 -p tcp -e 1540 -c 1 -i 9 -a 1 -x {0.0 4.0 2 ------- null}
+ -t 1.55328309451394 -s 2 -d 3 -p tcp -e 1540 -c 1 -i 9 -a 1 -x {0.0 4.0 2 ------- null}
- -t 1.55328309451394 -s 2 -d 3 -p tcp -e 1540 -c 1 -i 9 -a 1 -x {0.0 4.0 2 ------- null}
h -t 1.55328309451394 -s 2 -d 3 -p tcp -e 1540 -c 1 -i 9 -a 1 -x {0.0 4.0 -1 ------- null}
r -t 1.55400309451394 -s 2 -d 3 -p tcp -e 1540 -c 1 -i 8 -a 1 -x {0.0 4.0 1 ------- null}
+ -t 1.55400309451394 -s 3 -d 4 -p tcp -e 1540 -c 1 -i 8 -a 1 -x {0.0 4.0 1 ------- null}
- -t 1.55400309451394 -s 3 -d 4 -p tcp -e 1540 -c 1 -i 8 -a 1 -x {0.0 4.0 1 ------- null}
h -t 1.55400309451394 -s 3 -d 4 -p tcp -e 1540 -c 1 -i 8 -a 1 -x {0.0 4.0 -1 ------- null}
r -t 1.61560309451394 -s 2 -d 3 -p tcp -e 1540 -c 1 -i 9 -a 1 -x {0.0 4.0 2 ------- null}
+ -t 1.61560309451394 -s 3 -d 4 -p tcp -e 1540 -c 1 -i 9 -a 1 -x {0.0 4.0 2 ------- null}
- -t 1.61560309451394 -s 3 -d 4 -p tcp -e 1540 -c 1 -i 9 -a 1 -x {0.0 4.0 2 ------- null}
h -t 1.61560309451394 -s 3 -d 4 -p tcp -e 1540 -c 1 -i 9 -a 1 -x {0.0 4.0 -1 ------- null}
r -t 1.68840309451394 -s 3 -d 4 -p exp -e 1040 -c 2 -i 14 -a 2 -x {1.0 5.0 0 ------- null}
+ -t 1.68840309451394 -s 4 -d 5 -p exp -e 1040 -c 2 -i 14 -a 2 -x {1.0 5.0 0 ------- null}
- -t 1.68840309451394 -s 4 -d 5 -p exp -e 1040 -c 2 -i 14 -a 2 -x {1.0 5.0 0 ------- null}
h -t 1.68840309451394 -s 4 -d 5 -p exp -e 1040 -c 2 -i 14 -a 2 -x {1.0 5.0 -1 ------- null}
r -t 1.70752 -s 0 -d 7 -p tcp -e 1040 -c 4 -i 10 -a 4 -x {3.0 7.0 1 ------- null}
+ -t 1.70752 -s 7 -d 0 -p ack -e 40 -c 4 -i 16 -a 4 -x {7.0 3.0 1 ------- null}
- -t 1.70752 -s 7 -d 0 -p ack -e 40 -c 4 -i 16 -a 4 -x {7.0 3.0 1 ------- null}
h -t 1.70752 -s 7 -d 0 -p ack -e 40 -c 4 -i 16 -a 4 -x {7.0 3.0 -1 ------- null}
r -t 1.73000309451394 -s 3 -d 4 -p exp -e 1040 -c 2 -i 15 -a 2 -x {1.0 5.0 0 ------- null}
+ -t 1.73000309451394 -s 4 -d 5 -p exp -e 1040 -c 2 -i 15 -a 2 -x {1.0 5.0 0 ------- null}
- -t 1.73000309451394 -s 4 -d 5 -p exp -e 1040 -c 2 -i 15 -a 2 -x {1.0 5.0 0 ------- null}
h -t 1.73000309451394 -s 4 -d 5 -p exp -e 1040 -c 2 -i 15 -a 2 -x {1.0 5.0 -1 ------- null}
r -t 1.73325698674386 -s 5 -d 6 -p exp -e 1040 -c 3 -i 12 -a 3 -x {2.0 6.0 0 ------- null}
+ -t 1.73325698674386 -s 6 -d 7 -p ack -e 40 -c 3 -i 17 -a 3 -x {6.0 2.0 1 ------- null}
- -t 1.73325698674386 -s 6 -d 7 -p ack -e 40 -c 3 -i 17 -a 3 -x {6.0 2.0 1 ------- null}
h -t 1.73325698674386 -s 6 -d 7 -p ack -e 40 -c 3 -i 17 -a 3 -x {6.0 2.0 -1 ------- null}
r -t 1.74672309451394 -s 4 -d 5 -p exp -e 1040 -c 2 -i 14 -a 2 -x {1.0 5.0 0 ------- null}
+ -t 1.74672309451394 -s 5 -d 6 -p ack -e 40 -c 2 -i 18 -a 2 -x {5.0 1.0 1 ------- null}
- -t 1.74672309451394 -s 5 -d 6 -p ack -e 40 -c 2 -i 18 -a 2 -x {5.0 1.0 1 ------- null}
h -t 1.74672309451394 -s 5 -d 6 -p ack -e 40 -c 2 -i 18 -a 2 -x {5.0 1.0 -1 ------- null}
r -t 1.74912 -s 0 -d 7 -p tcp -e 1040 -c 4 -i 11 -a 4 -x {3.0 7.0 2 ------- null}
+ -t 1.74912 -s 7 -d 0 -p ack -e 40 -c 4 -i 19 -a 4 -x {7.0 3.0 2 ------- null}
- -t 1.74912 -s 7 -d 0 -p ack -e 40 -c 4 -i 19 -a 4 -x {7.0 3.0 2 ------- null}
h -t 1.74912 -s 7 -d 0 -p ack -e 40 -c 4 -i 19 -a 4 -x {7.0 3.0 -1 ------- null}
r -t 1.77485698674386 -s 5 -d 6 -p exp -e 1040 -c 3 -i 13 -a 3 -x {2.0 6.0 0 ------- null}
+ -t 1.77485698674386 -s 6 -d 7 -p ack -e 40 -c 3 -i 20 -a 3 -x {6.0 2.0 2 ------- null}
- -t 1.77485698674386 -s 6 -d 7 -p ack -e 40 -c 3 -i 20 -a 3 -x {6.0 2.0 2 ------- null}
h -t 1.77485698674386 -s 6 -d 7 -p ack -e 40 -c 3 -i 20 -a 3 -x {6.0 2.0 -1 ------- null}
r -t 1.78357698674386 -s 6 -d 7 -p ack -e 40 -c 3 -i 17 -a 3 -x {6.0 2.0 1 ------- null}
+ -t 1.78357698674386 -s 7 -d 0 -p ack -e 40 -c 3 -i 17 -a 3 -x {6.0 2.0 1 ------- null}
- -t 1.78357698674386 -s 7 -d 0 -p ack -e 40 -c 3 -i 17 -a 3 -x {6.0 2.0 1 ------- null}
h -t 1.78357698674386 -s 7 -d 0 -p ack -e 40 -c 3 -i 17 -a 3 -x {6.0 2.0 -1 ------- null}
r -t 1.78832309451394 -s 4 -d 5 -p exp -e 1040 -c 2 -i 15 -a 2 -x {1.0 5.0 0 ------- null}
+ -t 1.78832309451394 -s 5 -d 6 -p ack -e 40 -c 2 -i 21 -a 2 -x {5.0 1.0 2 ------- null}
- -t 1.78832309451394 -s 5 -d 6 -p ack -e 40 -c 2 -i 21 -a 2 -x {5.0 1.0 2 ------- null}
h -t 1.78832309451394 -s 5 -d 6 -p ack -e 40 -c 2 -i 21 -a 2 -x {5.0 1.0 -1 ------- null}
r -t 1.81560309451394 -s 3 -d 4 -p tcp -e 1540 -c 1 -i 8 -a 1 -x {0.0 4.0 1 ------- null}
+ -t 1.81560309451394 -s 4 -d 3 -p ack -e 40 -c 1 -i 22 -a 1 -x {4.0 0.0 1 ------- null}
- -t 1.81560309451394 -s 4 -d 3 -p ack -e 40 -c 1 -i 22 -a 1 -x {4.0 0.0 1 ------- null}
h -t 1.81560309451394 -s 4 -d 3 -p ack -e 40 -c 1 -i 22 -a 1 -x {4.0 0.0 -1 ------- null}
r -t 1.82517698674386 -s 6 -d 7 -p ack -e 40 -c 3 -i 20 -a 3 -x {6.0 2.0 2 ------- null}
+ -t 1.82517698674386 -s 7 -d 0 -p ack -e 40 -c 3 -i 20 -a 3 -x {6.0 2.0 2 ------- null}
- -t 1.82517698674386 -s 7 -d 0 -p ack -e 40 -c 3 -i 20 -a 3 -x {6.0 2.0 2 ------- null}
h -t 1.82517698674386 -s 7 -d 0 -p ack -e 40 -c 3 -i 20 -a 3 -x {6.0 2.0 -1 ------- null}
r -t 1.87720309451394 -s 3 -d 4 -p tcp -e 1540 -c 1 -i 9 -a 1 -x {0.0 4.0 2 ------- null}
+ -t 1.87720309451394 -s 4 -d 3 -p ack -e 40 -c 1 -i 23 -a 1 -x {4.0 0.0 2 ------- null}
- -t 1.87720309451394 -s 4 -d 3 -p ack -e 40 -c 1 -i 23 -a 1 -x {4.0 0.0 2 ------- null}
h -t 1.87720309451394 -s 4 -d 3 -p ack -e 40 -c 1 -i 23 -a 1 -x {4.0 0.0 -1 ------- null}
r -t 1.90912 -s 7 -d 0 -p ack -e 40 -c 4 -i 16 -a 4 -x {7.0 3.0 1 ------- null}
+ -t 1.90912 -s 0 -d 1 -p ack -e 40 -c 4 -i 16 -a 4 -x {7.0 3.0 1 ------- null}
- -t 1.90912 -s 0 -d 1 -p ack -e 40 -c 4 -i 16 -a 4 -x {7.0 3.0 1 ------- null}
h -t 1.90912 -s 0 -d 1 -p ack -e 40 -c 4 -i 16 -a 4 -x {7.0 3.0 -1 ------- null}
r -t 1.94832309451394 -s 5 -d 6 -p ack -e 40 -c 2 -i 18 -a 2 -x {5.0 1.0 1 ------- null}
+ -t 1.94832309451394 -s 6 -d 7 -p ack -e 40 -c 2 -i 18 -a 2 -x {5.0 1.0 1 ------- null}
- -t 1.94832309451394 -s 6 -d 7 -p ack -e 40 -c 2 -i 18 -a 2 -x {5.0 1.0 1 ------- null}
h -t 1.94832309451394 -s 6 -d 7 -p ack -e 40 -c 2 -i 18 -a 2 -x {5.0 1.0 -1 ------- null}
r -t 1.95072 -s 7 -d 0 -p ack -e 40 -c 4 -i 19 -a 4 -x {7.0 3.0 2 ------- null}
+ -t 1.95072 -s 0 -d 1 -p ack -e 40 -c 4 -i 19 -a 4 -x {7.0 3.0 2 ------- null}
- -t 1.95072 -s 0 -d 1 -p ack -e 40 -c 4 -i 19 -a 4 -x {7.0 3.0 2 ------- null}
h -t 1.95072 -s 0 -d 1 -p ack -e 40 -c 4 -i 19 -a 4 -x {7.0 3.0 -1 ------- null}
r -t 1.95944 -s 0 -d 1 -p ack -e 40 -c 4 -i 16 -a 4 -x {7.0 3.0 1 ------- null}
+ -t 1.95944 -s 1 -d 2 -p ack -e 40 -c 4 -i 16 -a 4 -x {7.0 3.0 1 ------- null}
- -t 1.95944 -s 1 -d 2 -p ack -e 40 -c 4 -i 16 -a 4 -x {7.0 3.0 1 ------- null}
h -t 1.95944 -s 1 -d 2 -p ack -e 40 -c 4 -i 16 -a 4 -x {7.0 3.0 -1 ------- null}
r -t 1.98517698674386 -s 7 -d 0 -p ack -e 40 -c 3 -i 17 -a 3 -x {6.0 2.0 1 ------- null}
+ -t 1.98517698674386 -s 0 -d 1 -p ack -e 40 -c 3 -i 17 -a 3 -x {6.0 2.0 1 ------- null}
- -t 1.98517698674386 -s 0 -d 1 -p ack -e 40 -c 3 -i 17 -a 3 -x {6.0 2.0 1 ------- null}
h -t 1.98517698674386 -s 0 -d 1 -p ack -e 40 -c 3 -i 17 -a 3 -x {6.0 2.0 -1 ------- null}
r -t 1.98992309451394 -s 5 -d 6 -p ack -e 40 -c 2 -i 21 -a 2 -x {5.0 1.0 2 ------- null}
+ -t 1.98992309451394 -s 6 -d 7 -p ack -e 40 -c 2 -i 21 -a 2 -x {5.0 1.0 2 ------- null}
- -t 1.98992309451394 -s 6 -d 7 -p ack -e 40 -c 2 -i 21 -a 2 -x {5.0 1.0 2 ------- null}
h -t 1.98992309451394 -s 6 -d 7 -p ack -e 40 -c 2 -i 21 -a 2 -x {5.0 1.0 -1 ------- null}
r -t 1.99864309451394 -s 6 -d 7 -p ack -e 40 -c 2 -i 18 -a 2 -x {5.0 1.0 1 ------- null}
+ -t 1.99864309451394 -s 7 -d 0 -p ack -e 40 -c 2 -i 18 -a 2 -x {5.0 1.0 1 ------- null}
- -t 1.99864309451394 -s 7 -d 0 -p ack -e 40 -c 2 -i 18 -a 2 -x {5.0 1.0 1 ------- null}
h -t 1.99864309451394 -s 7 -d 0 -p ack -e 40 -c 2 -i 18 -a 2 -x {5.0 1.0 -1 ------- null}
r -t 2.00104 -s 0 -d 1 -p ack -e 40 -c 4 -i 19 -a 4 -x {7.0 3.0 2 ------- null}
+ -t 2.00104 -s 1 -d 2 -p ack -e 40 -c 4 -i 19 -a 4 -x {7.0 3.0 2 ------- null}
- -t 2.00104 -s 1 -d 2 -p ack -e 40 -c 4 -i 19 -a 4 -x {7.0 3.0 2 ------- null}
h -t 2.00104 -s 1 -d 2 -p ack -e 40 -c 4 -i 19 -a 4 -x {7.0 3.0 -1 ------- null}
r -t 2.01720309451394 -s 4 -d 3 -p ack -e 40 -c 1 -i 22 -a 1 -x {4.0 0.0 1 ------- null}
+ -t 2.01720309451394 -s 3 -d 2 -p ack -e 40 -c 1 -i 22 -a 1 -x {4.0 0.0 1 ------- null}
- -t 2.01720309451394 -s 3 -d 2 -p ack -e 40 -c 1 -i 22 -a 1 -x {4.0 0.0 1 ------- null}
h -t 2.01720309451394 -s 3 -d 2 -p ack -e 40 -c 1 -i 22 -a 1 -x {4.0 0.0 -1 ------- null}
r -t 2.02677698674386 -s 7 -d 0 -p ack -e 40 -c 3 -i 20 -a 3 -x {6.0 2.0 2 ------- null}
+ -t 2.02677698674386 -s 0 -d 1 -p ack -e 40 -c 3 -i 20 -a 3 -x {6.0 2.0 2 ------- null}
- -t 2.02677698674386 -s 0 -d 1 -p ack -e 40 -c 3 -i 20 -a 3 -x {6.0 2.0 2 ------- null}
h -t 2.02677698674386 -s 0 -d 1 -p ack -e 40 -c 3 -i 20 -a 3 -x {6.0 2.0 -1 ------- null}
r -t 2.03549698674386 -s 0 -d 1 -p ack -e 40 -c 3 -i 17 -a 3 -x {6.0 2.0 1 ------- null}
+ -t 2.03549698674386 -s 1 -d 2 -p ack -e 40 -c 3 -i 17 -a 3 -x {6.0 2.0 1 ------- null}
- -t 2.03549698674386 -s 1 -d 2 -p ack -e 40 -c 3 -i 17 -a 3 -x {6.0 2.0 1 ------- null}
h -t 2.03549698674386 -s 1 -d 2 -p ack -e 40 -c 3 -i 17 -a 3 -x {6.0 2.0 -1 ------- null}
r -t 2.04024309451394 -s 6 -d 7 -p ack -e 40 -c 2 -i 21 -a 2 -x {5.0 1.0 2 ------- null}
+ -t 2.04024309451394 -s 7 -d 0 -p ack -e 40 -c 2 -i 21 -a 2 -x {5.0 1.0 2 ------- null}