+ 0.1 1 0 tcp 40 ------- 1 1.0 5.0 0 0
- 0.1 1 0 tcp 40 ------- 1 1.0 5.0 0 0
+ 0.1 4 0 tcp 40 ------- 4 4.0 8.0 0 1
- 0.1 4 0 tcp 40 ------- 4 4.0 8.0 0 1
+ 0.125737 3 0 exp 40 ------- 3 3.0 7.0 0 2
- 0.125737 3 0 exp 40 ------- 3 3.0 7.0 0 2
+ 0.139203 2 0 exp 40 ------- 2 2.0 6.0 0 3
- 0.139203 2 0 exp 40 ------- 2 2.0 6.0 0 3
r 0.15032 1 0 tcp 40 ------- 1 1.0 5.0 0 0
+ 0.15032 0 5 tcp 40 ------- 1 1.0 5.0 0 0
- 0.15032 0 5 tcp 40 ------- 1 1.0 5.0 0 0
r 0.15032 4 0 tcp 40 ------- 4 4.0 8.0 0 1
+ 0.15032 0 8 tcp 40 ------- 4 4.0 8.0 0 1
- 0.15032 0 8 tcp 40 ------- 4 4.0 8.0 0 1
r 0.176057 3 0 exp 40 ------- 3 3.0 7.0 0 2
+ 0.176057 0 7 exp 40 ------- 3 3.0 7.0 0 2
- 0.176057 0 7 exp 40 ------- 3 3.0 7.0 0 2
r 0.189523 2 0 exp 40 ------- 2 2.0 6.0 0 3
+ 0.189523 0 6 exp 40 ------- 2 2.0 6.0 0 3
- 0.189523 0 6 exp 40 ------- 2 2.0 6.0 0 3
r 0.35192 0 5 tcp 40 ------- 1 1.0 5.0 0 0
+ 0.35192 5 0 ack 40 ------- 1 5.0 1.0 0 4
- 0.35192 5 0 ack 40 ------- 1 5.0 1.0 0 4
r 0.35192 0 8 tcp 40 ------- 4 4.0 8.0 0 1
+ 0.35192 8 0 ack 40 ------- 4 8.0 4.0 0 5
- 0.35192 8 0 ack 40 ------- 4 8.0 4.0 0 5
r 0.377657 0 7 exp 40 ------- 3 3.0 7.0 0 2
+ 0.377657 7 0 ack 40 ------- 3 7.0 3.0 0 6
- 0.377657 7 0 ack 40 ------- 3 7.0 3.0 0 6
r 0.391123 0 6 exp 40 ------- 2 2.0 6.0 0 3
+ 0.391123 6 0 ack 40 ------- 2 6.0 2.0 0 7
- 0.391123 6 0 ack 40 ------- 2 6.0 2.0 0 7
r 0.55352 5 0 ack 40 ------- 1 5.0 1.0 0 4
+ 0.55352 0 1 ack 40 ------- 1 5.0 1.0 0 4
- 0.55352 0 1 ack 40 ------- 1 5.0 1.0 0 4
r 0.55352 8 0 ack 40 ------- 4 8.0 4.0 0 5
+ 0.55352 0 4 ack 40 ------- 4 8.0 4.0 0 5
- 0.55352 0 4 ack 40 ------- 4 8.0 4.0 0 5
r 0.579257 7 0 ack 40 ------- 3 7.0 3.0 0 6
+ 0.579257 0 3 ack 40 ------- 3 7.0 3.0 0 6
- 0.579257 0 3 ack 40 ------- 3 7.0 3.0 0 6
r 0.592723 6 0 ack 40 ------- 2 6.0 2.0 0 7
+ 0.592723 0 2 ack 40 ------- 2 6.0 2.0 0 7
- 0.592723 0 2 ack 40 ------- 2 6.0 2.0 0 7
r 0.60384 0 1 ack 40 ------- 1 5.0 1.0 0 4
+ 0.60384 1 0 tcp 1540 ------- 1 1.0 5.0 1 8
- 0.60384 1 0 tcp 1540 ------- 1 1.0 5.0 1 8
+ 0.60384 1 0 tcp 1540 ------- 1 1.0 5.0 2 9
r 0.60384 0 4 ack 40 ------- 4 8.0 4.0 0 5
+ 0.60384 4 0 tcp 1040 ------- 4 4.0 8.0 1 10
- 0.60384 4 0 tcp 1040 ------- 4 4.0 8.0 1 10
+ 0.60384 4 0 tcp 1040 ------- 4 4.0 8.0 2 11
- 0.61216 4 0 tcp 1040 ------- 4 4.0 8.0 2 11
- 0.61616 1 0 tcp 1540 ------- 1 1.0 5.0 2 9
r 0.629577 0 3 ack 40 ------- 3 7.0 3.0 0 6
+ 0.629577 3 0 exp 1040 ------- 3 3.0 7.0 0 12
- 0.629577 3 0 exp 1040 ------- 3 3.0 7.0 0 12
+ 0.629577 3 0 exp 1040 ------- 3 3.0 7.0 0 13
- 0.637897 3 0 exp 1040 ------- 3 3.0 7.0 0 13
r 0.643043 0 2 ack 40 ------- 2 6.0 2.0 0 7
+ 0.643043 2 0 exp 1040 ------- 2 2.0 6.0 0 14
- 0.643043 2 0 exp 1040 ------- 2 2.0 6.0 0 14
+ 0.643043 2 0 exp 1040 ------- 2 2.0 6.0 0 15
- 0.651363 2 0 exp 1040 ------- 2 2.0 6.0 0 15
r 0.66216 4 0 tcp 1040 ------- 4 4.0 8.0 1 10
+ 0.66216 0 8 tcp 1040 ------- 4 4.0 8.0 1 10
- 0.66216 0 8 tcp 1040 ------- 4 4.0 8.0 1 10
r 0.66616 1 0 tcp 1540 ------- 1 1.0 5.0 1 8
+ 0.66616 0 5 tcp 1540 ------- 1 1.0 5.0 1 8
- 0.66616 0 5 tcp 1540 ------- 1 1.0 5.0 1 8
r 0.67048 4 0 tcp 1040 ------- 4 4.0 8.0 2 11
+ 0.67048 0 8 tcp 1040 ------- 4 4.0 8.0 2 11
r 0.67848 1 0 tcp 1540 ------- 1 1.0 5.0 2 9
+ 0.67848 0 5 tcp 1540 ------- 1 1.0 5.0 2 9
r 0.687897 3 0 exp 1040 ------- 3 3.0 7.0 0 12
+ 0.687897 0 7 exp 1040 ------- 3 3.0 7.0 0 12
- 0.687897 0 7 exp 1040 ------- 3 3.0 7.0 0 12
r 0.696217 3 0 exp 1040 ------- 3 3.0 7.0 0 13
+ 0.696217 0 7 exp 1040 ------- 3 3.0 7.0 0 13
r 0.701363 2 0 exp 1040 ------- 2 2.0 6.0 0 14
+ 0.701363 0 6 exp 1040 ------- 2 2.0 6.0 0 14
- 0.701363 0 6 exp 1040 ------- 2 2.0 6.0 0 14
- 0.70376 0 8 tcp 1040 ------- 4 4.0 8.0 2 11
r 0.709683 2 0 exp 1040 ------- 2 2.0 6.0 0 15
+ 0.709683 0 6 exp 1040 ------- 2 2.0 6.0 0 15
- 0.72776 0 5 tcp 1540 ------- 1 1.0 5.0 2 9
- 0.729497 0 7 exp 1040 ------- 3 3.0 7.0 0 13
- 0.742963 0 6 exp 1040 ------- 2 2.0 6.0 0 15
r 0.90376 0 8 tcp 1040 ------- 4 4.0 8.0 1 10
+ 0.90376 8 0 ack 40 ------- 4 8.0 4.0 1 16
- 0.90376 8 0 ack 40 ------- 4 8.0 4.0 1 16
r 0.92776 0 5 tcp 1540 ------- 1 1.0 5.0 1 8
+ 0.92776 5 0 ack 40 ------- 1 5.0 1.0 1 17
- 0.92776 5 0 ack 40 ------- 1 5.0 1.0 1 17
r 0.929497 0 7 exp 1040 ------- 3 3.0 7.0 0 12
+ 0.929497 7 0 ack 40 ------- 3 7.0 3.0 1 18
- 0.929497 7 0 ack 40 ------- 3 7.0 3.0 1 18
r 0.942963 0 6 exp 1040 ------- 2 2.0 6.0 0 14
+ 0.942963 6 0 ack 40 ------- 2 6.0 2.0 1 19
- 0.942963 6 0 ack 40 ------- 2 6.0 2.0 1 19
r 0.94536 0 8 tcp 1040 ------- 4 4.0 8.0 2 11
+ 0.94536 8 0 ack 40 ------- 4 8.0 4.0 2 20
- 0.94536 8 0 ack 40 ------- 4 8.0 4.0 2 20
r 0.971097 0 7 exp 1040 ------- 3 3.0 7.0 0 13
+ 0.971097 7 0 ack 40 ------- 3 7.0 3.0 2 21
- 0.971097 7 0 ack 40 ------- 3 7.0 3.0 2 21
r 0.984563 0 6 exp 1040 ------- 2 2.0 6.0 0 15
+ 0.984563 6 0 ack 40 ------- 2 6.0 2.0 2 22
- 0.984563 6 0 ack 40 ------- 2 6.0 2.0 2 22
r 0.98936 0 5 tcp 1540 ------- 1 1.0 5.0 2 9
+ 0.98936 5 0 ack 40 ------- 1 5.0 1.0 2 23
- 0.98936 5 0 ack 40 ------- 1 5.0 1.0 2 23
r 1.10536 8 0 ack 40 ------- 4 8.0 4.0 1 16
+ 1.10536 0 4 ack 40 ------- 4 8.0 4.0 1 16
- 1.10536 0 4 ack 40 ------- 4 8.0 4.0 1 16
r 1.12936 5 0 ack 40 ------- 1 5.0 1.0 1 17
+ 1.12936 0 1 ack 40 ------- 1 5.0 1.0 1 17
- 1.12936 0 1 ack 40 ------- 1 5.0 1.0 1 17
r 1.131097 7 0 ack 40 ------- 3 7.0 3.0 1 18
+ 1.131097 0 3 ack 40 ------- 3 7.0 3.0 1 18
- 1.131097 0 3 ack 40 ------- 3 7.0 3.0 1 18
r 1.144563 6 0 ack 40 ------- 2 6.0 2.0 1 19
+ 1.144563 0 2 ack 40 ------- 2 6.0 2.0 1 19
- 1.144563 0 2 ack 40 ------- 2 6.0 2.0 1 19
r 1.14696 8 0 ack 40 ------- 4 8.0 4.0 2 20
+ 1.14696 0 4 ack 40 ------- 4 8.0 4.0 2 20
- 1.14696 0 4 ack 40 ------- 4 8.0 4.0 2 20
r 1.15568 0 4 ack 40 ------- 4 8.0 4.0 1 16
+ 1.15568 4 0 tcp 1040 ------- 4 4.0 8.0 3 24
- 1.15568 4 0 tcp 1040 ------- 4 4.0 8.0 3 24
+ 1.15568 4 0 tcp 1040 ------- 4 4.0 8.0 4 25
- 1.164 4 0 tcp 1040 ------- 4 4.0 8.0 4 25
r 1.172697 7 0 ack 40 ------- 3 7.0 3.0 2 21
+ 1.172697 0 3 ack 40 ------- 3 7.0 3.0 2 21
- 1.172697 0 3 ack 40 ------- 3 7.0 3.0 2 21
r 1.17968 0 1 ack 40 ------- 1 5.0 1.0 1 17
+ 1.17968 1 0 tcp 1540 ------- 1 1.0 5.0 3 26
- 1.17968 1 0 tcp 1540 ------- 1 1.0 5.0 3 26
+ 1.17968 1 0 tcp 1540 ------- 1 1.0 5.0 4 27
r 1.181417 0 3 ack 40 ------- 3 7.0 3.0 1 18
+ 1.181417 3 0 exp 1040 ------- 3 3.0 7.0 0 28
- 1.181417 3 0 exp 1040 ------- 3 3.0 7.0 0 28
+ 1.181417 3 0 exp 1040 ------- 3 3.0 7.0 0 29
r 1.186163 6 0 ack 40 ------- 2 6.0 2.0 2 22
+ 1.186163 0 2 ack 40 ------- 2 6.0 2.0 2 22
- 1.186163 0 2 ack 40 ------- 2 6.0 2.0 2 22
- 1.189737 3 0 exp 1040 ------- 3 3.0 7.0 0 29
r 1.19096 5 0 ack 40 ------- 1 5.0 1.0 2 23
+ 1.19096 0 1 ack 40 ------- 1 5.0 1.0 2 23
- 1.19096 0 1 ack 40 ------- 1 5.0 1.0 2 23
- 1.192 1 0 tcp 1540 ------- 1 1.0 5.0 4 27
r 1.194883 0 2 ack 40 ------- 2 6.0 2.0 1 19
+ 1.194883 2 0 exp 1040 ------- 2 2.0 6.0 0 30
- 1.194883 2 0 exp 1040 ------- 2 2.0 6.0 0 30
+ 1.194883 2 0 exp 1040 ------- 2 2.0 6.0 0 31
r 1.19728 0 4 ack 40 ------- 4 8.0 4.0 2 20
+ 1.19728 4 0 tcp 1040 ------- 4 4.0 8.0 5 32
- 1.19728 4 0 tcp 1040 ------- 4 4.0 8.0 5 32
+ 1.19728 4 0 tcp 1040 ------- 4 4.0 8.0 6 33
- 1.203203 2 0 exp 1040 ------- 2 2.0 6.0 0 31
- 1.2056 4 0 tcp 1040 ------- 4 4.0 8.0 6 33
r 1.214 4 0 tcp 1040 ------- 4 4.0 8.0 3 24
+ 1.214 0 8 tcp 1040 ------- 4 4.0 8.0 3 24
- 1.214 0 8 tcp 1040 ------- 4 4.0 8.0 3 24
r 1.22232 4 0 tcp 1040 ------- 4 4.0 8.0 4 25
+ 1.22232 0 8 tcp 1040 ------- 4 4.0 8.0 4 25
r 1.223017 0 3 ack 40 ------- 3 7.0 3.0 2 21
+ 1.223017 3 0 exp 1040 ------- 3 3.0 7.0 0 34
- 1.223017 3 0 exp 1040 ------- 3 3.0 7.0 0 34
+ 1.223017 3 0 exp 1040 ------- 3 3.0 7.0 0 35
- 1.231337 3 0 exp 1040 ------- 3 3.0 7.0 0 35
r 1.236483 0 2 ack 40 ------- 2 6.0 2.0 2 22
+ 1.236483 2 0 exp 1040 ------- 2 2.0 6.0 0 36
- 1.236483 2 0 exp 1040 ------- 2 2.0 6.0 0 36
+ 1.236483 2 0 exp 1040 ------- 2 2.0 6.0 0 37
r 1.239737 3 0 exp 1040 ------- 3 3.0 7.0 0 28
+ 1.239737 0 7 exp 1040 ------- 3 3.0 7.0 0 28
- 1.239737 0 7 exp 1040 ------- 3 3.0 7.0 0 28
r 1.24128 0 1 ack 40 ------- 1 5.0 1.0 2 23
+ 1.24128 1 0 tcp 1540 ------- 1 1.0 5.0 5 38
- 1.24128 1 0 tcp 1540 ------- 1 1.0 5.0 5 38
+ 1.24128 1 0 tcp 1540 ------- 1 1.0 5.0 6 39
r 1.242 1 0 tcp 1540 ------- 1 1.0 5.0 3 26
+ 1.242 0 5 tcp 1540 ------- 1 1.0 5.0 3 26
- 1.242 0 5 tcp 1540 ------- 1 1.0 5.0 3 26
- 1.244803 2 0 exp 1040 ------- 2 2.0 6.0 0 37
r 1.248057 3 0 exp 1040 ------- 3 3.0 7.0 0 29
+ 1.248057 0 7 exp 1040 ------- 3 3.0 7.0 0 29
r 1.253203 2 0 exp 1040 ------- 2 2.0 6.0 0 30
+ 1.253203 0 6 exp 1040 ------- 2 2.0 6.0 0 30
- 1.253203 0 6 exp 1040 ------- 2 2.0 6.0 0 30
- 1.2536 1 0 tcp 1540 ------- 1 1.0 5.0 6 39
r 1.25432 1 0 tcp 1540 ------- 1 1.0 5.0 4 27
+ 1.25432 0 5 tcp 1540 ------- 1 1.0 5.0 4 27
r 1.2556 4 0 tcp 1040 ------- 4 4.0 8.0 5 32
+ 1.2556 0 8 tcp 1040 ------- 4 4.0 8.0 5 32
- 1.2556 0 8 tcp 1040 ------- 4 4.0 8.0 4 25
r 1.261523 2 0 exp 1040 ------- 2 2.0 6.0 0 31
+ 1.261523 0 6 exp 1040 ------- 2 2.0 6.0 0 31
r 1.26392 4 0 tcp 1040 ------- 4 4.0 8.0 6 33
+ 1.26392 0 8 tcp 1040 ------- 4 4.0 8.0 6 33
r 1.281337 3 0 exp 1040 ------- 3 3.0 7.0 0 34
+ 1.281337 0 7 exp 1040 ------- 3 3.0 7.0 0 34
- 1.281337 0 7 exp 1040 ------- 3 3.0 7.0 0 29
r 1.289657 3 0 exp 1040 ------- 3 3.0 7.0 0 35
+ 1.289657 0 7 exp 1040 ------- 3 3.0 7.0 0 35
r 1.294803 2 0 exp 1040 ------- 2 2.0 6.0 0 36
+ 1.294803 0 6 exp 1040 ------- 2 2.0 6.0 0 36
- 1.294803 0 6 exp 1040 ------- 2 2.0 6.0 0 31
- 1.2972 0 8 tcp 1040 ------- 4 4.0 8.0 5 32
r 1.303123 2 0 exp 1040 ------- 2 2.0 6.0 0 37
+ 1.303123 0 6 exp 1040 ------- 2 2.0 6.0 0 37
r 1.3036 1 0 tcp 1540 ------- 1 1.0 5.0 5 38
+ 1.3036 0 5 tcp 1540 ------- 1 1.0 5.0 5 38
- 1.3036 0 5 tcp 1540 ------- 1 1.0 5.0 4 27
r 1.31592 1 0 tcp 1540 ------- 1 1.0 5.0 6 39
+ 1.31592 0 5 tcp 1540 ------- 1 1.0 5.0 6 39
- 1.322937 0 7 exp 1040 ------- 3 3.0 7.0 0 34
- 1.336403 0 6 exp 1040 ------- 2 2.0 6.0 0 36
- 1.3388 0 8 tcp 1040 ------- 4 4.0 8.0 6 33
- 1.364537 0 7 exp 1040 ------- 3 3.0 7.0 0 35
- 1.3652 0 5 tcp 1540 ------- 1 1.0 5.0 5 38
- 1.378003 0 6 exp 1040 ------- 2 2.0 6.0 0 37
- 1.4268 0 5 tcp 1540 ------- 1 1.0 5.0 6 39
r 1.4556 0 8 tcp 1040 ------- 4 4.0 8.0 3 24
+ 1.4556 8 0 ack 40 ------- 4 8.0 4.0 3 40
- 1.4556 8 0 ack 40 ------- 4 8.0 4.0 3 40
r 1.481337 0 7 exp 1040 ------- 3 3.0 7.0 0 28
+ 1.481337 7 0 ack 40 ------- 3 7.0 3.0 3 41
- 1.481337 7 0 ack 40 ------- 3 7.0 3.0 3 41
r 1.494803 0 6 exp 1040 ------- 2 2.0 6.0 0 30
+ 1.494803 6 0 ack 40 ------- 2 6.0 2.0 3 42
- 1.494803 6 0 ack 40 ------- 2 6.0 2.0 3 42
r 1.4972 0 8 tcp 1040 ------- 4 4.0 8.0 4 25
+ 1.4972 8 0 ack 40 ------- 4 8.0 4.0 4 43
- 1.4972 8 0 ack 40 ------- 4 8.0 4.0 4 43
r 1.5036 0 5 tcp 1540 ------- 1 1.0 5.0 3 26
+ 1.5036 5 0 ack 40 ------- 1 5.0 1.0 3 44
- 1.5036 5 0 ack 40 ------- 1 5.0 1.0 3 44
r 1.522937 0 7 exp 1040 ------- 3 3.0 7.0 0 29
+ 1.522937 7 0 ack 40 ------- 3 7.0 3.0 4 45
- 1.522937 7 0 ack 40 ------- 3 7.0 3.0 4 45
r 1.536403 0 6 exp 1040 ------- 2 2.0 6.0 0 31
+ 1.536403 6 0 ack 40 ------- 2 6.0 2.0 4 46
- 1.536403 6 0 ack 40 ------- 2 6.0 2.0 4 46
r 1.5388 0 8 tcp 1040 ------- 4 4.0 8.0 5 32
+ 1.5388 8 0 ack 40 ------- 4 8.0 4.0 5 47
- 1.5388 8 0 ack 40 ------- 4 8.0 4.0 5 47
r 1.564537 0 7 exp 1040 ------- 3 3.0 7.0 0 34
+ 1.564537 7 0 ack 40 ------- 3 7.0 3.0 5 48
- 1.564537 7 0 ack 40 ------- 3 7.0 3.0 5 48
r 1.5652 0 5 tcp 1540 ------- 1 1.0 5.0 4 27
+ 1.5652 5 0 ack 40 ------- 1 5.0 1.0 4 49
- 1.5652 5 0 ack 40 ------- 1 5.0 1.0 4 49
r 1.578003 0 6 exp 1040 ------- 2 2.0 6.0 0 36
+ 1.578003 6 0 ack 40 ------- 2 6.0 2.0 5 50
- 1.578003 6 0 ack 40 ------- 2 6.0 2.0 5 50
r 1.5804 0 8 tcp 1040 ------- 4 4.0 8.0 6 33
+ 1.5804 8 0 ack 40 ------- 4 8.0 4.0 6 51
- 1.5804 8 0 ack 40 ------- 4 8.0 4.0 6 51
r 1.606137 0 7 exp 1040 ------- 3 3.0 7.0 0 35
+ 1.606137 7 0 ack 40 ------- 3 7.0 3.0 6 52
- 1.606137 7 0 ack 40 ------- 3 7.0 3.0 6 52
r 1.619603 0 6 exp 1040 ------- 2 2.0 6.0 0 37
+ 1.619603 6 0 ack 40 ------- 2 6.0 2.0 6 53
- 1.619603 6 0 ack 40 ------- 2 6.0 2.0 6 53
r 1.6268 0 5 tcp 1540 ------- 1 1.0 5.0 5 38
+ 1.6268 5 0 ack 40 ------- 1 5.0 1.0 5 54
- 1.6268 5 0 ack 40 ------- 1 5.0 1.0 5 54
r 1.6572 8 0 ack 40 ------- 4 8.0 4.0 3 40
+ 1.6572 0 4 ack 40 ------- 4 8.0 4.0 3 40
- 1.6572 0 4 ack 40 ------- 4 8.0 4.0 3 40
r 1.682937 7 0 ack 40 ------- 3 7.0 3.0 3 41
+ 1.682937 0 3 ack 40 ------- 3 7.0 3.0 3 41
- 1.682937 0 3 ack 40 ------- 3 7.0 3.0 3 41
r 1.6884 0 5 tcp 1540 ------- 1 1.0 5.0 6 39
+ 1.6884 5 0 ack 40 ------- 1 5.0 1.0 6 55
- 1.6884 5 0 ack 40 ------- 1 5.0 1.0 6 55
r 1.696403 6 0 ack 40 ------- 2 6.0 2.0 3 42
+ 1.696403 0 2 ack 40 ------- 2 6.0 2.0 3 42
- 1.696403 0 2 ack 40 ------- 2 6.0 2.0 3 42
r 1.6988 8 0 ack 40 ------- 4 8.0 4.0 4 43
+ 1.6988 0 4 ack 40 ------- 4 8.0 4.0 4 43
- 1.6988 0 4 ack 40 ------- 4 8.0 4.0 4 43
r 1.7052 5 0 ack 40 ------- 1 5.0 1.0 3 44
+ 1.7052 0 1 ack 40 ------- 1 5.0 1.0 3 44
- 1.7052 0 1 ack 40 ------- 1 5.0 1.0 3 44
r 1.70752 0 4 ack 40 ------- 4 8.0 4.0 3 40
+ 1.70752 4 0 tcp 1040 ------- 4 4.0 8.0 7 56
- 1.70752 4 0 tcp 1040 ------- 4 4.0 8.0 7 56
+ 1.70752 4 0 tcp 1040 ------- 4 4.0 8.0 8 57
- 1.71584 4 0 tcp 1040 ------- 4 4.0 8.0 8 57
r 1.724537 7 0 ack 40 ------- 3 7.0 3.0 4 45
+ 1.724537 0 3 ack 40 ------- 3 7.0 3.0 4 45
- 1.724537 0 3 ack 40 ------- 3 7.0 3.0 4 45
r 1.733257 0 3 ack 40 ------- 3 7.0 3.0 3 41
+ 1.733257 3 0 exp 1040 ------- 3 3.0 7.0 0 58
- 1.733257 3 0 exp 1040 ------- 3 3.0 7.0 0 58
+ 1.733257 3 0 exp 1040 ------- 3 3.0 7.0 0 59
r 1.738003 6 0 ack 40 ------- 2 6.0 2.0 4 46
+ 1.738003 0 2 ack 40 ------- 2 6.0 2.0 4 46
- 1.738003 0 2 ack 40 ------- 2 6.0 2.0 4 46
r 1.7404 8 0 ack 40 ------- 4 8.0 4.0 5 47
+ 1.7404 0 4 ack 40 ------- 4 8.0 4.0 5 47
- 1.7404 0 4 ack 40 ------- 4 8.0 4.0 5 47
- 1.741577 3 0 exp 1040 ------- 3 3.0 7.0 0 59
r 1.746723 0 2 ack 40 ------- 2 6.0 2.0 3 42
+ 1.746723 2 0 exp 1040 ------- 2 2.0 6.0 0 60
- 1.746723 2 0 exp 1040 ------- 2 2.0 6.0 0 60
+ 1.746723 2 0 exp 1040 ------- 2 2.0 6.0 0 61
r 1.74912 0 4 ack 40 ------- 4 8.0 4.0 4 43
+ 1.74912 4 0 tcp 1040 ------- 4 4.0 8.0 9 62
- 1.74912 4 0 tcp 1040 ------- 4 4.0 8.0 9 62
+ 1.74912 4 0 tcp 1040 ------- 4 4.0 8.0 10 63
- 1.755043 2 0 exp 1040 ------- 2 2.0 6.0 0 61
r 1.75552 0 1 ack 40 ------- 1 5.0 1.0 3 44
+ 1.75552 1 0 tcp 1540 ------- 1 1.0 5.0 7 64
- 1.75552 1 0 tcp 1540 ------- 1 1.0 5.0 7 64
+ 1.75552 1 0 tcp 1540 ------- 1 1.0 5.0 8 65
- 1.75744 4 0 tcp 1040 ------- 4 4.0 8.0 10 63
r 1.76584 4 0 tcp 1040 ------- 4 4.0 8.0 7 56
+ 1.76584 0 8 tcp 1040 ------- 4 4.0 8.0 7 56
- 1.76584 0 8 tcp 1040 ------- 4 4.0 8.0 7 56
r 1.766137 7 0 ack 40 ------- 3 7.0 3.0 5 48
+ 1.766137 0 3 ack 40 ------- 3 7.0 3.0 5 48
- 1.766137 0 3 ack 40 ------- 3 7.0 3.0 5 48
r 1.7668 5 0 ack 40 ------- 1 5.0 1.0 4 49
+ 1.7668 0 1 ack 40 ------- 1 5.0 1.0 4 49
- 1.7668 0 1 ack 40 ------- 1 5.0 1.0 4 49
- 1.76784 1 0 tcp 1540 ------- 1 1.0 5.0 8 65
r 1.77416 4 0 tcp 1040 ------- 4 4.0 8.0 8 57
+ 1.77416 0 8 tcp 1040 ------- 4 4.0 8.0 8 57
r 1.774857 0 3 ack 40 ------- 3 7.0 3.0 4 45
+ 1.774857 3 0 exp 1040 ------- 3 3.0 7.0 0 66
- 1.774857 3 0 exp 1040 ------- 3 3.0 7.0 0 66
+ 1.774857 3 0 exp 1040 ------- 3 3.0 7.0 0 67
r 1.779603 6 0 ack 40 ------- 2 6.0 2.0 5 50
+ 1.779603 0 2 ack 40 ------- 2 6.0 2.0 5 50
- 1.779603 0 2 ack 40 ------- 2 6.0 2.0 5 50
r 1.782 8 0 ack 40 ------- 4 8.0 4.0 6 51
+ 1.782 0 4 ack 40 ------- 4 8.0 4.0 6 51
- 1.782 0 4 ack 40 ------- 4 8.0 4.0 6 51
- 1.783177 3 0 exp 1040 ------- 3 3.0 7.0 0 67
r 1.788323 0 2 ack 40 ------- 2 6.0 2.0 4 46
+ 1.788323 2 0 exp 1040 ------- 2 2.0 6.0 0 68
- 1.788323 2 0 exp 1040 ------- 2 2.0 6.0 0 68
+ 1.788323 2 0 exp 1040 ------- 2 2.0 6.0 0 69
r 1.79072 0 4 ack 40 ------- 4 8.0 4.0 5 47
+ 1.79072 4 0 tcp 1040 ------- 4 4.0 8.0 11 70
- 1.79072 4 0 tcp 1040 ------- 4 4.0 8.0 11 70
+ 1.79072 4 0 tcp 1040 ------- 4 4.0 8.0 12 71
r 1.791577 3 0 exp 1040 ------- 3 3.0 7.0 0 58
+ 1.791577 0 7 exp 1040 ------- 3 3.0 7.0 0 58
- 1.791577 0 7 exp 1040 ------- 3 3.0 7.0 0 58
- 1.796643 2 0 exp 1040 ------- 2 2.0 6.0 0 69
- 1.79904 4 0 tcp 1040 ------- 4 4.0 8.0 12 71
r 1.799897 3 0 exp 1040 ------- 3 3.0 7.0 0 59
+ 1.799897 0 7 exp 1040 ------- 3 3.0 7.0 0 59
r 1.805043 2 0 exp 1040 ------- 2 2.0 6.0 0 60
+ 1.805043 0 6 exp 1040 ------- 2 2.0 6.0 0 60
- 1.805043 0 6 exp 1040 ------- 2 2.0 6.0 0 60
r 1.80744 4 0 tcp 1040 ------- 4 4.0 8.0 9 62
+ 1.80744 0 8 tcp 1040 ------- 4 4.0 8.0 9 62
- 1.80744 0 8 tcp 1040 ------- 4 4.0 8.0 8 57
r 1.807737 7 0 ack 40 ------- 3 7.0 3.0 6 52
+ 1.807737 0 3 ack 40 ------- 3 7.0 3.0 6 52
- 1.807737 0 3 ack 40 ------- 3 7.0 3.0 6 52
r 1.813363 2 0 exp 1040 ------- 2 2.0 6.0 0 61
+ 1.813363 0 6 exp 1040 ------- 2 2.0 6.0 0 61
r 1.81576 4 0 tcp 1040 ------- 4 4.0 8.0 10 63
+ 1.81576 0 8 tcp 1040 ------- 4 4.0 8.0 10 63
r 1.816457 0 3 ack 40 ------- 3 7.0 3.0 5 48
+ 1.816457 3 0 exp 1040 ------- 3 3.0 7.0 0 72
- 1.816457 3 0 exp 1040 ------- 3 3.0 7.0 0 72
+ 1.816457 3 0 exp 1040 ------- 3 3.0 7.0 0 73
r 1.81712 0 1 ack 40 ------- 1 5.0 1.0 4 49
+ 1.81712 1 0 tcp 1540 ------- 1 1.0 5.0 9 74
- 1.81712 1 0 tcp 1540 ------- 1 1.0 5.0 9 74
+ 1.81712 1 0 tcp 1540 ------- 1 1.0 5.0 10 75
r 1.81784 1 0 tcp 1540 ------- 1 1.0 5.0 7 64
+ 1.81784 0 5 tcp 1540 ------- 1 1.0 5.0 7 64
- 1.81784 0 5 tcp 1540 ------- 1 1.0 5.0 7 64
r 1.821203 6 0 ack 40 ------- 2 6.0 2.0 6 53
+ 1.821203 0 2 ack 40 ------- 2 6.0 2.0 6 53
- 1.821203 0 2 ack 40 ------- 2 6.0 2.0 6 53
- 1.824777 3 0 exp 1040 ------- 3 3.0 7.0 0 73
r 1.8284 5 0 ack 40 ------- 1 5.0 1.0 5 54
+ 1.8284 0 1 ack 40 ------- 1 5.0 1.0 5 54
- 1.8284 0 1 ack 40 ------- 1 5.0 1.0 5 54
- 1.82944 1 0 tcp 1540 ------- 1 1.0 5.0 10 75
r 1.829923 0 2 ack 40 ------- 2 6.0 2.0 5 50
+ 1.829923 2 0 exp 1040 ------- 2 2.0 6.0 0 76
- 1.829923 2 0 exp 1040 ------- 2 2.0 6.0 0 76
+ 1.829923 2 0 exp 1040 ------- 2 2.0 6.0 0 77
r 1.83016 1 0 tcp 1540 ------- 1 1.0 5.0 8 65
+ 1.83016 0 5 tcp 1540 ------- 1 1.0 5.0 8 65
r 1.83232 0 4 ack 40 ------- 4 8.0 4.0 6 51
+ 1.83232 4 0 tcp 1040 ------- 4 4.0 8.0 13 78
- 1.83232 4 0 tcp 1040 ------- 4 4.0 8.0 13 78
+ 1.83232 4 0 tcp 1040 ------- 4 4.0 8.0 14 79
r 1.833177 3 0 exp 1040 ------- 3 3.0 7.0 0 66
+ 1.833177 0 7 exp 1040 ------- 3 3.0 7.0 0 66
- 1.833177 0 7 exp 1040 ------- 3 3.0 7.0 0 59
- 1.838243 2 0 exp 1040 ------- 2 2.0 6.0 0 77
- 1.84064 4 0 tcp 1040 ------- 4 4.0 8.0 14 79
r 1.841497 3 0 exp 1040 ------- 3 3.0 7.0 0 67
+ 1.841497 0 7 exp 1040 ------- 3 3.0 7.0 0 67
r 1.846643 2 0 exp 1040 ------- 2 2.0 6.0 0 68
+ 1.846643 0 6 exp 1040 ------- 2 2.0 6.0 0 68
- 1.846643 0 6 exp 1040 ------- 2 2.0 6.0 0 61
r 1.84904 4 0 tcp 1040 ------- 4 4.0 8.0 11 70
+ 1.84904 0 8 tcp 1040 ------- 4 4.0 8.0 11 70
- 1.84904 0 8 tcp 1040 ------- 4 4.0 8.0 9 62
r 1.854963 2 0 exp 1040 ------- 2 2.0 6.0 0 69
+ 1.854963 0 6 exp 1040 ------- 2 2.0 6.0 0 69
r 1.85736 4 0 tcp 1040 ------- 4 4.0 8.0 12 71
+ 1.85736 0 8 tcp 1040 ------- 4 4.0 8.0 12 71
r 1.858057 0 3 ack 40 ------- 3 7.0 3.0 6 52
+ 1.858057 3 0 exp 1040 ------- 3 3.0 7.0 0 80
- 1.858057 3 0 exp 1040 ------- 3 3.0 7.0 0 80
+ 1.858057 3 0 exp 1040 ------- 3 3.0 7.0 0 81
- 1.866377 3 0 exp 1040 ------- 3 3.0 7.0 0 81
r 1.871523 0 2 ack 40 ------- 2 6.0 2.0 6 53
+ 1.871523 2 0 exp 1040 ------- 2 2.0 6.0 0 82
- 1.871523 2 0 exp 1040 ------- 2 2.0 6.0 0 82
+ 1.871523 2 0 exp 1040 ------- 2 2.0 6.0 0 83
r 1.874777 3 0 exp 1040 ------- 3 3.0 7.0 0 72
+ 1.874777 0 7 exp 1040 ------- 3 3.0 7.0 0 72
- 1.874777 0 7 exp 1040 ------- 3 3.0 7.0 0 66
r 1.87872 0 1 ack 40 ------- 1 5.0 1.0 5 54
+ 1.87872 1 0 tcp 1540 ------- 1 1.0 5.0 11 84
- 1.87872 1 0 tcp 1540 ------- 1 1.0 5.0 11 84
+ 1.87872 1 0 tcp 1540 ------- 1 1.0 5.0 12 85
r 1.87944 1 0 tcp 1540 ------- 1 1.0 5.0 9 74
+ 1.87944 0 5 tcp 1540 ------- 1 1.0 5.0 9 74
- 1.87944 0 5 tcp 1540 ------- 1 1.0 5.0 8 65
- 1.879843 2 0 exp 1040 ------- 2 2.0 6.0 0 83
r 1.883097 3 0 exp 1040 ------- 3 3.0 7.0 0 73
+ 1.883097 0 7 exp 1040 ------- 3 3.0 7.0 0 73
r 1.888243 2 0 exp 1040 ------- 2 2.0 6.0 0 76
+ 1.888243 0 6 exp 1040 ------- 2 2.0 6.0 0 76
- 1.888243 0 6 exp 1040 ------- 2 2.0 6.0 0 68
r 1.89 5 0 ack 40 ------- 1 5.0 1.0 6 55
+ 1.89 0 1 ack 40 ------- 1 5.0 1.0 6 55
- 1.89 0 1 ack 40 ------- 1 5.0 1.0 6 55
r 1.89064 4 0 tcp 1040 ------- 4 4.0 8.0 13 78
+ 1.89064 0 8 tcp 1040 ------- 4 4.0 8.0 13 78
- 1.89064 0 8 tcp 1040 ------- 4 4.0 8.0 10 63
- 1.89104 1 0 tcp 1540 ------- 1 1.0 5.0 12 85
r 1.89176 1 0 tcp 1540 ------- 1 1.0 5.0 10 75
+ 1.89176 0 5 tcp 1540 ------- 1 1.0 5.0 10 75
r 1.896563 2 0 exp 1040 ------- 2 2.0 6.0 0 77
+ 1.896563 0 6 exp 1040 ------- 2 2.0 6.0 0 77
r 1.89896 4 0 tcp 1040 ------- 4 4.0 8.0 14 79
+ 1.89896 0 8 tcp 1040 ------- 4 4.0 8.0 14 79
r 1.916377 3 0 exp 1040 ------- 3 3.0 7.0 0 80
+ 1.916377 0 7 exp 1040 ------- 3 3.0 7.0 0 80
- 1.916377 0 7 exp 1040 ------- 3 3.0 7.0 0 67
r 1.924697 3 0 exp 1040 ------- 3 3.0 7.0 0 81
+ 1.924697 0 7 exp 1040 ------- 3 3.0 7.0 0 81
r 1.929843 2 0 exp 1040 ------- 2 2.0 6.0 0 82
+ 1.929843 0 6 exp 1040 ------- 2 2.0 6.0 0 82
- 1.929843 0 6 exp 1040 ------- 2 2.0 6.0 0 69
- 1.93224 0 8 tcp 1040 ------- 4 4.0 8.0 11 70
r 1.938163 2 0 exp 1040 ------- 2 2.0 6.0 0 83
+ 1.938163 0 6 exp 1040 ------- 2 2.0 6.0 0 83
r 1.94032 0 1 ack 40 ------- 1 5.0 1.0 6 55
+ 1.94032 1 0 tcp 1540 ------- 1 1.0 5.0 13 86
- 1.94032 1 0 tcp 1540 ------- 1 1.0 5.0 13 86
+ 1.94032 1 0 tcp 1540 ------- 1 1.0 5.0 14 87
r 1.94104 1 0 tcp 1540 ------- 1 1.0 5.0 11 84
+ 1.94104 0 5 tcp 1540 ------- 1 1.0 5.0 11 84
- 1.94104 0 5 tcp 1540 ------- 1 1.0 5.0 9 74
- 1.95264 1 0 tcp 1540 ------- 1 1.0 5.0 14 87
r 1.95336 1 0 tcp 1540 ------- 1 1.0 5.0 12 85
+ 1.95336 0 5 tcp 1540 ------- 1 1.0 5.0 12 85
- 1.957977 0 7 exp 1040 ------- 3 3.0 7.0 0 72
- 1.971443 0 6 exp 1040 ------- 2 2.0 6.0 0 76
- 1.97384 0 8 tcp 1040 ------- 4 4.0 8.0 12 71
- 1.999577 0 7 exp 1040 ------- 3 3.0 7.0 0 73
- 2.00264 0 5 tcp 1540 ------- 1 1.0 5.0 10 75
r 2.00264 1 0 tcp 1540 ------- 1 1.0 5.0 13 86
+ 2.00264 0 5 tcp 1540 ------- 1 1.0 5.0 13 86
r 2.00744 0 8 tcp 1040 ------- 4 4.0 8.0 7 56
+ 2.00744 8 0 ack 40 ------- 4 8.0 4.0 7 88
- 2.00744 8 0 ack 40 ------- 4 8.0 4.0 7 88
- 2.013043 0 6 exp 1040 ------- 2 2.0 6.0 0 77
r 2.01496 1 0 tcp 1540 ------- 1 1.0 5.0 14 87
+ 2.01496 0 5 tcp 1540 ------- 1 1.0 5.0 14 87
- 2.01544 0 8 tcp 1040 ------- 4 4.0 8.0 13 78
r 2.033177 0 7 exp 1040 ------- 3 3.0 7.0 0 58
+ 2.033177 7 0 ack 40 ------- 3 7.0 3.0 7 89
- 2.033177 7 0 ack 40 ------- 3 7.0 3.0 7 89
- 2.041177 0 7 exp 1040 ------- 3 3.0 7.0 0 80
r 2.046643 0 6 exp 1040 ------- 2 2.0 6.0 0 60
+ 2.046643 6 0 ack 40 ------- 2 6.0 2.0 7 90
- 2.046643 6 0 ack 40 ------- 2 6.0 2.0 7 90
r 2.04904 0 8 tcp 1040 ------- 4 4.0 8.0 8 57
+ 2.04904 8 0 ack 40 ------- 4 8.0 4.0 8 91
- 2.04904 8 0 ack 40 ------- 4 8.0 4.0 8 91
- 2.054643 0 6 exp 1040 ------- 2 2.0 6.0 0 82
- 2.05704 0 8 tcp 1040 ------- 4 4.0 8.0 14 79
- 2.06424 0 5 tcp 1540 ------- 1 1.0 5.0 11 84
r 2.074777 0 7 exp 1040 ------- 3 3.0 7.0 0 59
+ 2.074777 7 0 ack 40 ------- 3 7.0 3.0 8 92
- 2.074777 7 0 ack 40 ------- 3 7.0 3.0 8 92
r 2.07944 0 5 tcp 1540 ------- 1 1.0 5.0 7 64
+ 2.07944 5 0 ack 40 ------- 1 5.0 1.0 7 93
- 2.07944 5 0 ack 40 ------- 1 5.0 1.0 7 93
- 2.082777 0 7 exp 1040 ------- 3 3.0 7.0 0 81
r 2.088243 0 6 exp 1040 ------- 2 2.0 6.0 0 61
+ 2.088243 6 0 ack 40 ------- 2 6.0 2.0 8 94
- 2.088243 6 0 ack 40 ------- 2 6.0 2.0 8 94
r 2.09064 0 8 tcp 1040 ------- 4 4.0 8.0 9 62
+ 2.09064 8 0 ack 40 ------- 4 8.0 4.0 9 95
- 2.09064 8 0 ack 40 ------- 4 8.0 4.0 9 95
- 2.096243 0 6 exp 1040 ------- 2 2.0 6.0 0 83
r 2.116377 0 7 exp 1040 ------- 3 3.0 7.0 0 66
+ 2.116377 7 0 ack 40 ------- 3 7.0 3.0 9 96
- 2.116377 7 0 ack 40 ------- 3 7.0 3.0 9 96
- 2.12584 0 5 tcp 1540 ------- 1 1.0 5.0 12 85
r 2.129843 0 6 exp 1040 ------- 2 2.0 6.0 0 68
+ 2.129843 6 0 ack 40 ------- 2 6.0 2.0 9 97
- 2.129843 6 0 ack 40 ------- 2 6.0 2.0 9 97
r 2.13224 0 8 tcp 1040 ------- 4 4.0 8.0 10 63
+ 2.13224 8 0 ack 40 ------- 4 8.0 4.0 10 98
- 2.13224 8 0 ack 40 ------- 4 8.0 4.0 10 98
r 2.14104 0 5 tcp 1540 ------- 1 1.0 5.0 8 65
+ 2.14104 5 0 ack 40 ------- 1 5.0 1.0 8 99
- 2.14104 5 0 ack 40 ------- 1 5.0 1.0 8 99
r 2.157977 0 7 exp 1040 ------- 3 3.0 7.0 0 67
+ 2.157977 7 0 ack 40 ------- 3 7.0 3.0 10 100
- 2.157977 7 0 ack 40 ------- 3 7.0 3.0 10 100
r 2.171443 0 6 exp 1040 ------- 2 2.0 6.0 0 69
+ 2.171443 6 0 ack 40 ------- 2 6.0 2.0 10 101
- 2.171443 6 0 ack 40 ------- 2 6.0 2.0 10 101
r 2.17384 0 8 tcp 1040 ------- 4 4.0 8.0 11 70
+ 2.17384 8 0 ack 40 ------- 4 8.0 4.0 11 102
- 2.17384 8 0 ack 40 ------- 4 8.0 4.0 11 102
- 2.18744 0 5 tcp 1540 ------- 1 1.0 5.0 13 86
r 2.199577 0 7 exp 1040 ------- 3 3.0 7.0 0 72
+ 2.199577 7 0 ack 40 ------- 3 7.0 3.0 11 103
- 2.199577 7 0 ack 40 ------- 3 7.0 3.0 11 103
r 2.20264 0 5 tcp 1540 ------- 1 1.0 5.0 9 74
+ 2.20264 5 0 ack 40 ------- 1 5.0 1.0 9 104
- 2.20264 5 0 ack 40 ------- 1 5.0 1.0 9 104
r 2.20904 8 0 ack 40 ------- 4 8.0 4.0 7 88
+ 2.20904 0 4 ack 40 ------- 4 8.0 4.0 7 88
- 2.20904 0 4 ack 40 ------- 4 8.0 4.0 7 88
r 2.213043 0 6 exp 1040 ------- 2 2.0 6.0 0 76
+ 2.213043 6 0 ack 40 ------- 2 6.0 2.0 11 105
- 2.213043 6 0 ack 40 ------- 2 6.0 2.0 11 105
r 2.21544 0 8 tcp 1040 ------- 4 4.0 8.0 12 71
+ 2.21544 8 0 ack 40 ------- 4 8.0 4.0 12 106
- 2.21544 8 0 ack 40 ------- 4 8.0 4.0 12 106
r 2.234777 7 0 ack 40 ------- 3 7.0 3.0 7 89
+ 2.234777 0 3 ack 40 ------- 3 7.0 3.0 7 89
- 2.234777 0 3 ack 40 ------- 3 7.0 3.0 7 89
r 2.241177 0 7 exp 1040 ------- 3 3.0 7.0 0 73
+ 2.241177 7 0 ack 40 ------- 3 7.0 3.0 12 107
- 2.241177 7 0 ack 40 ------- 3 7.0 3.0 12 107
r 2.248243 6 0 ack 40 ------- 2 6.0 2.0 7 90
+ 2.248243 0 2 ack 40 ------- 2 6.0 2.0 7 90
- 2.248243 0 2 ack 40 ------- 2 6.0 2.0 7 90
- 2.24904 0 5 tcp 1540 ------- 1 1.0 5.0 14 87
r 2.25064 8 0 ack 40 ------- 4 8.0 4.0 8 91
+ 2.25064 0 4 ack 40 ------- 4 8.0 4.0 8 91
- 2.25064 0 4 ack 40 ------- 4 8.0 4.0 8 91
r 2.254643 0 6 exp 1040 ------- 2 2.0 6.0 0 77
+ 2.254643 6 0 ack 40 ------- 2 6.0 2.0 12 108
- 2.254643 6 0 ack 40 ------- 2 6.0 2.0 12 108
r 2.25704 0 8 tcp 1040 ------- 4 4.0 8.0 13 78
+ 2.25704 8 0 ack 40 ------- 4 8.0 4.0 13 109
- 2.25704 8 0 ack 40 ------- 4 8.0 4.0 13 109
r 2.25936 0 4 ack 40 ------- 4 8.0 4.0 7 88
+ 2.25936 4 0 tcp 1040 ------- 4 4.0 8.0 15 110
- 2.25936 4 0 tcp 1040 ------- 4 4.0 8.0 15 110
+ 2.25936 4 0 tcp 1040 ------- 4 4.0 8.0 16 111
r 2.26424 0 5 tcp 1540 ------- 1 1.0 5.0 10 75
+ 2.26424 5 0 ack 40 ------- 1 5.0 1.0 10 112
- 2.26424 5 0 ack 40 ------- 1 5.0 1.0 10 112
- 2.26768 4 0 tcp 1040 ------- 4 4.0 8.0 16 111
r 2.276377 7 0 ack 40 ------- 3 7.0 3.0 8 92
+ 2.276377 0 3 ack 40 ------- 3 7.0 3.0 8 92
- 2.276377 0 3 ack 40 ------- 3 7.0 3.0 8 92
r 2.28104 5 0 ack 40 ------- 1 5.0 1.0 7 93
+ 2.28104 0 1 ack 40 ------- 1 5.0 1.0 7 93
- 2.28104 0 1 ack 40 ------- 1 5.0 1.0 7 93
r 2.282777 0 7 exp 1040 ------- 3 3.0 7.0 0 80
+ 2.282777 7 0 ack 40 ------- 3 7.0 3.0 13 113
- 2.282777 7 0 ack 40 ------- 3 7.0 3.0 13 113
r 2.285097 0 3 ack 40 ------- 3 7.0 3.0 7 89
+ 2.285097 3 0 exp 1040 ------- 3 3.0 7.0 0 114
- 2.285097 3 0 exp 1040 ------- 3 3.0 7.0 0 114
+ 2.285097 3 0 exp 1040 ------- 3 3.0 7.0 0 115
r 2.289843 6 0 ack 40 ------- 2 6.0 2.0 8 94
+ 2.289843 0 2 ack 40 ------- 2 6.0 2.0 8 94
- 2.289843 0 2 ack 40 ------- 2 6.0 2.0 8 94
r 2.29224 8 0 ack 40 ------- 4 8.0 4.0 9 95
+ 2.29224 0 4 ack 40 ------- 4 8.0 4.0 9 95
- 2.29224 0 4 ack 40 ------- 4 8.0 4.0 9 95
- 2.293417 3 0 exp 1040 ------- 3 3.0 7.0 0 115
r 2.296243 0 6 exp 1040 ------- 2 2.0 6.0 0 82
+ 2.296243 6 0 ack 40 ------- 2 6.0 2.0 13 116
- 2.296243 6 0 ack 40 ------- 2 6.0 2.0 13 116
r 2.298563 0 2 ack 40 ------- 2 6.0 2.0 7 90
+ 2.298563 2 0 exp 1040 ------- 2 2.0 6.0 0 117
- 2.298563 2 0 exp 1040 ------- 2 2.0 6.0 0 117
+ 2.298563 2 0 exp 1040 ------- 2 2.0 6.0 0 118
r 2.29864 0 8 tcp 1040 ------- 4 4.0 8.0 14 79
+ 2.29864 8 0 ack 40 ------- 4 8.0 4.0 14 119
- 2.29864 8 0 ack 40 ------- 4 8.0 4.0 14 119
r 2.30096 0 4 ack 40 ------- 4 8.0 4.0 8 91
+ 2.30096 4 0 tcp 1040 ------- 4 4.0 8.0 17 120
- 2.30096 4 0 tcp 1040 ------- 4 4.0 8.0 17 120
+ 2.30096 4 0 tcp 1040 ------- 4 4.0 8.0 18 121
- 2.306883 2 0 exp 1040 ------- 2 2.0 6.0 0 118
- 2.30928 4 0 tcp 1040 ------- 4 4.0 8.0 18 121
r 2.31768 4 0 tcp 1040 ------- 4 4.0 8.0 15 110
+ 2.31768 0 8 tcp 1040 ------- 4 4.0 8.0 15 110
- 2.31768 0 8 tcp 1040 ------- 4 4.0 8.0 15 110
r 2.317977 7 0 ack 40 ------- 3 7.0 3.0 9 96
+ 2.317977 0 3 ack 40 ------- 3 7.0 3.0 9 96
- 2.317977 0 3 ack 40 ------- 3 7.0 3.0 9 96
r 2.324377 0 7 exp 1040 ------- 3 3.0 7.0 0 81
+ 2.324377 7 0 ack 40 ------- 3 7.0 3.0 14 122
- 2.324377 7 0 ack 40 ------- 3 7.0 3.0 14 122
r 2.32584 0 5 tcp 1540 ------- 1 1.0 5.0 11 84
+ 2.32584 5 0 ack 40 ------- 1 5.0 1.0 11 123
- 2.32584 5 0 ack 40 ------- 1 5.0 1.0 11 123
r 2.326 4 0 tcp 1040 ------- 4 4.0 8.0 16 111
+ 2.326 0 8 tcp 1040 ------- 4 4.0 8.0 16 111
r 2.326697 0 3 ack 40 ------- 3 7.0 3.0 8 92
+ 2.326697 3 0 exp 1040 ------- 3 3.0 7.0 0 124
- 2.326697 3 0 exp 1040 ------- 3 3.0 7.0 0 124
+ 2.326697 3 0 exp 1040 ------- 3 3.0 7.0 0 125
r 2.33136 0 1 ack 40 ------- 1 5.0 1.0 7 93
+ 2.33136 1 0 tcp 1540 ------- 1 1.0 5.0 15 126
- 2.33136 1 0 tcp 1540 ------- 1 1.0 5.0 15 126
+ 2.33136 1 0 tcp 1540 ------- 1 1.0 5.0 16 127
r 2.331443 6 0 ack 40 ------- 2 6.0 2.0 9 97
+ 2.331443 0 2 ack 40 ------- 2 6.0 2.0 9 97
- 2.331443 0 2 ack 40 ------- 2 6.0 2.0 9 97
r 2.33384 8 0 ack 40 ------- 4 8.0 4.0 10 98
+ 2.33384 0 4 ack 40 ------- 4 8.0 4.0 10 98
- 2.33384 0 4 ack 40 ------- 4 8.0 4.0 10 98
- 2.335017 3 0 exp 1040 ------- 3 3.0 7.0 0 125
r 2.337843 0 6 exp 1040 ------- 2 2.0 6.0 0 83
+ 2.337843 6 0 ack 40 ------- 2 6.0 2.0 14 128
- 2.337843 6 0 ack 40 ------- 2 6.0 2.0 14 128
r 2.340163 0 2 ack 40 ------- 2 6.0 2.0 8 94
+ 2.340163 2 0 exp 1040 ------- 2 2.0 6.0 0 129
- 2.340163 2 0 exp 1040 ------- 2 2.0 6.0 0 129
+ 2.340163 2 0 exp 1040 ------- 2 2.0 6.0 0 130
r 2.34256 0 4 ack 40 ------- 4 8.0 4.0 9 95
+ 2.34256 4 0 tcp 1040 ------- 4 4.0 8.0 19 131
- 2.34256 4 0 tcp 1040 ------- 4 4.0 8.0 19 131