V -t * -v 1.0a5 -a 0
A -t * -n 1 -p 0 -o 0x7fffffff -c 30 -a 1
A -t * -h 1 -m 1073741823 -s 0
c -t * -i 4 -n Yellow
c -t * -i 1 -n Green
c -t * -i 2 -n Blue
c -t * -i 3 -n Red
n -t * -a 8 -s 8 -S UP -v circle -c yellow -i yellow
n -t * -a 4 -s 4 -S UP -v box -c black -i black
n -t * -a 0 -s 0 -S UP -v circle -c green -i green
n -t * -a 9 -s 9 -S UP -v circle -c yellow -i yellow
n -t * -a 5 -s 5 -S UP -v circle -c green -i green
n -t * -a 1 -s 1 -S UP -v circle -c blue -i blue
n -t * -a 6 -s 6 -S UP -v circle -c blue -i blue
n -t * -a 2 -s 2 -S UP -v circle -c red -i red
n -t * -a 7 -s 7 -S UP -v circle -c red -i red
n -t * -a 3 -s 3 -S UP -v box -c black -i black
l -t * -s 3 -d 4 -S UP -r 100000000 -D 0.050000000000000003 -c black -o right
l -t * -s 4 -d 6 -S UP -r 200000 -D 0.20000000000000001 -c black -o right
l -t * -s 4 -d 5 -S UP -r 200000 -D 0.20000000000000001 -c black -o right-up
l -t * -s 0 -d 3 -S UP -r 1000000 -D 0.050000000000000003 -c black -o right-down
l -t * -s 1 -d 3 -S UP -r 1000000 -D 0.050000000000000003 -c black -o right
l -t * -s 2 -d 3 -S UP -r 1000000 -D 0.050000000000000003 -c black -o right-up
l -t * -s 4 -d 7 -S UP -r 200000 -D 0.20000000000000001 -c black -o right-down
l -t * -s 8 -d 3 -S UP -r 1000000 -D 0.050000000000000003 -c black -o right-up
l -t * -s 4 -d 9 -S UP -r 200000 -D 0.20000000000000001 -c black -o right-down
+ -t 0.1 -s 1 -d 3 -p tcp -e 40 -c 2 -i 0 -a 2 -x {1.0 6.0 0 ------- null}
- -t 0.1 -s 1 -d 3 -p tcp -e 40 -c 2 -i 0 -a 2 -x {1.0 6.0 0 ------- null}
h -t 0.1 -s 1 -d 3 -p tcp -e 40 -c 2 -i 0 -a 2 -x {1.0 6.0 -1 ------- null}
+ -t 0.1 -s 8 -d 3 -p tcp -e 40 -c 4 -i 1 -a 4 -x {8.0 9.0 0 ------- null}
- -t 0.1 -s 8 -d 3 -p tcp -e 40 -c 4 -i 1 -a 4 -x {8.0 9.0 0 ------- null}
h -t 0.1 -s 8 -d 3 -p tcp -e 40 -c 4 -i 1 -a 4 -x {8.0 9.0 -1 ------- null}
+ -t 0.125736986743863 -s 0 -d 3 -p exp -e 40 -c 1 -i 2 -a 1 -x {0.0 5.0 0 ------- null}
- -t 0.125736986743863 -s 0 -d 3 -p exp -e 40 -c 1 -i 2 -a 1 -x {0.0 5.0 0 ------- null}
h -t 0.125736986743863 -s 0 -d 3 -p exp -e 40 -c 1 -i 2 -a 1 -x {0.0 5.0 -1 ------- null}
+ -t 0.139203094513941 -s 2 -d 3 -p exp -e 40 -c 3 -i 3 -a 3 -x {2.0 7.0 0 ------- null}
- -t 0.139203094513941 -s 2 -d 3 -p exp -e 40 -c 3 -i 3 -a 3 -x {2.0 7.0 0 ------- null}
h -t 0.139203094513941 -s 2 -d 3 -p exp -e 40 -c 3 -i 3 -a 3 -x {2.0 7.0 -1 ------- null}
r -t 0.15032 -s 1 -d 3 -p tcp -e 40 -c 2 -i 0 -a 2 -x {1.0 6.0 0 ------- null}
+ -t 0.15032 -s 3 -d 4 -p tcp -e 40 -c 2 -i 0 -a 2 -x {1.0 6.0 0 ------- null}
- -t 0.15032 -s 3 -d 4 -p tcp -e 40 -c 2 -i 0 -a 2 -x {1.0 6.0 0 ------- null}
h -t 0.15032 -s 3 -d 4 -p tcp -e 40 -c 2 -i 0 -a 2 -x {1.0 6.0 -1 ------- null}
r -t 0.15032 -s 8 -d 3 -p tcp -e 40 -c 4 -i 1 -a 4 -x {8.0 9.0 0 ------- null}
+ -t 0.15032 -s 3 -d 4 -p tcp -e 40 -c 4 -i 1 -a 4 -x {8.0 9.0 0 ------- null}
- -t 0.1503232 -s 3 -d 4 -p tcp -e 40 -c 4 -i 1 -a 4 -x {8.0 9.0 0 ------- null}
h -t 0.1503232 -s 3 -d 4 -p tcp -e 40 -c 4 -i 1 -a 4 -x {8.0 9.0 -1 ------- null}
r -t 0.176056986743863 -s 0 -d 3 -p exp -e 40 -c 1 -i 2 -a 1 -x {0.0 5.0 0 ------- null}
+ -t 0.176056986743863 -s 3 -d 4 -p exp -e 40 -c 1 -i 2 -a 1 -x {0.0 5.0 0 ------- null}
- -t 0.176056986743863 -s 3 -d 4 -p exp -e 40 -c 1 -i 2 -a 1 -x {0.0 5.0 0 ------- null}
h -t 0.176056986743863 -s 3 -d 4 -p exp -e 40 -c 1 -i 2 -a 1 -x {0.0 5.0 -1 ------- null}
r -t 0.189523094513941 -s 2 -d 3 -p exp -e 40 -c 3 -i 3 -a 3 -x {2.0 7.0 0 ------- null}
+ -t 0.189523094513941 -s 3 -d 4 -p exp -e 40 -c 3 -i 3 -a 3 -x {2.0 7.0 0 ------- null}
- -t 0.189523094513941 -s 3 -d 4 -p exp -e 40 -c 3 -i 3 -a 3 -x {2.0 7.0 0 ------- null}
h -t 0.189523094513941 -s 3 -d 4 -p exp -e 40 -c 3 -i 3 -a 3 -x {2.0 7.0 -1 ------- null}
r -t 0.2003232 -s 3 -d 4 -p tcp -e 40 -c 2 -i 0 -a 2 -x {1.0 6.0 0 ------- null}
+ -t 0.2003232 -s 4 -d 6 -p tcp -e 40 -c 2 -i 0 -a 2 -x {1.0 6.0 0 ------- null}
- -t 0.2003232 -s 4 -d 6 -p tcp -e 40 -c 2 -i 0 -a 2 -x {1.0 6.0 0 ------- null}
h -t 0.2003232 -s 4 -d 6 -p tcp -e 40 -c 2 -i 0 -a 2 -x {1.0 6.0 -1 ------- null}
r -t 0.2003264 -s 3 -d 4 -p tcp -e 40 -c 4 -i 1 -a 4 -x {8.0 9.0 0 ------- null}
+ -t 0.2003264 -s 4 -d 9 -p tcp -e 40 -c 4 -i 1 -a 4 -x {8.0 9.0 0 ------- null}
- -t 0.2003264 -s 4 -d 9 -p tcp -e 40 -c 4 -i 1 -a 4 -x {8.0 9.0 0 ------- null}
h -t 0.2003264 -s 4 -d 9 -p tcp -e 40 -c 4 -i 1 -a 4 -x {8.0 9.0 -1 ------- null}
r -t 0.226060186743863 -s 3 -d 4 -p exp -e 40 -c 1 -i 2 -a 1 -x {0.0 5.0 0 ------- null}
+ -t 0.226060186743863 -s 4 -d 5 -p exp -e 40 -c 1 -i 2 -a 1 -x {0.0 5.0 0 ------- null}
- -t 0.226060186743863 -s 4 -d 5 -p exp -e 40 -c 1 -i 2 -a 1 -x {0.0 5.0 0 ------- null}
h -t 0.226060186743863 -s 4 -d 5 -p exp -e 40 -c 1 -i 2 -a 1 -x {0.0 5.0 -1 ------- null}
r -t 0.239526294513941 -s 3 -d 4 -p exp -e 40 -c 3 -i 3 -a 3 -x {2.0 7.0 0 ------- null}
+ -t 0.239526294513941 -s 4 -d 7 -p exp -e 40 -c 3 -i 3 -a 3 -x {2.0 7.0 0 ------- null}
- -t 0.239526294513941 -s 4 -d 7 -p exp -e 40 -c 3 -i 3 -a 3 -x {2.0 7.0 0 ------- null}
h -t 0.239526294513941 -s 4 -d 7 -p exp -e 40 -c 3 -i 3 -a 3 -x {2.0 7.0 -1 ------- null}
r -t 0.4019232 -s 4 -d 6 -p tcp -e 40 -c 2 -i 0 -a 2 -x {1.0 6.0 0 ------- null}
+ -t 0.4019232 -s 6 -d 4 -p ack -e 40 -c 2 -i 4 -a 2 -x {6.0 1.0 0 ------- null}
- -t 0.4019232 -s 6 -d 4 -p ack -e 40 -c 2 -i 4 -a 2 -x {6.0 1.0 0 ------- null}
h -t 0.4019232 -s 6 -d 4 -p ack -e 40 -c 2 -i 4 -a 2 -x {6.0 1.0 -1 ------- null}
r -t 0.4019264 -s 4 -d 9 -p tcp -e 40 -c 4 -i 1 -a 4 -x {8.0 9.0 0 ------- null}
+ -t 0.4019264 -s 9 -d 4 -p ack -e 40 -c 4 -i 5 -a 4 -x {9.0 8.0 0 ------- null}
- -t 0.4019264 -s 9 -d 4 -p ack -e 40 -c 4 -i 5 -a 4 -x {9.0 8.0 0 ------- null}
h -t 0.4019264 -s 9 -d 4 -p ack -e 40 -c 4 -i 5 -a 4 -x {9.0 8.0 -1 ------- null}
r -t 0.427660186743863 -s 4 -d 5 -p exp -e 40 -c 1 -i 2 -a 1 -x {0.0 5.0 0 ------- null}
+ -t 0.427660186743863 -s 5 -d 4 -p ack -e 40 -c 1 -i 6 -a 1 -x {5.0 0.0 0 ------- null}
- -t 0.427660186743863 -s 5 -d 4 -p ack -e 40 -c 1 -i 6 -a 1 -x {5.0 0.0 0 ------- null}
h -t 0.427660186743863 -s 5 -d 4 -p ack -e 40 -c 1 -i 6 -a 1 -x {5.0 0.0 -1 ------- null}
r -t 0.441126294513941 -s 4 -d 7 -p exp -e 40 -c 3 -i 3 -a 3 -x {2.0 7.0 0 ------- null}
+ -t 0.441126294513941 -s 7 -d 4 -p ack -e 40 -c 3 -i 7 -a 3 -x {7.0 2.0 0 ------- null}
- -t 0.441126294513941 -s 7 -d 4 -p ack -e 40 -c 3 -i 7 -a 3 -x {7.0 2.0 0 ------- null}
h -t 0.441126294513941 -s 7 -d 4 -p ack -e 40 -c 3 -i 7 -a 3 -x {7.0 2.0 -1 ------- null}
r -t 0.6035232 -s 6 -d 4 -p ack -e 40 -c 2 -i 4 -a 2 -x {6.0 1.0 0 ------- null}
+ -t 0.6035232 -s 4 -d 3 -p ack -e 40 -c 2 -i 4 -a 2 -x {6.0 1.0 0 ------- null}
- -t 0.6035232 -s 4 -d 3 -p ack -e 40 -c 2 -i 4 -a 2 -x {6.0 1.0 0 ------- null}
h -t 0.6035232 -s 4 -d 3 -p ack -e 40 -c 2 -i 4 -a 2 -x {6.0 1.0 -1 ------- null}
r -t 0.6035264 -s 9 -d 4 -p ack -e 40 -c 4 -i 5 -a 4 -x {9.0 8.0 0 ------- null}
+ -t 0.6035264 -s 4 -d 3 -p ack -e 40 -c 4 -i 5 -a 4 -x {9.0 8.0 0 ------- null}
- -t 0.6035264 -s 4 -d 3 -p ack -e 40 -c 4 -i 5 -a 4 -x {9.0 8.0 0 ------- null}
h -t 0.6035264 -s 4 -d 3 -p ack -e 40 -c 4 -i 5 -a 4 -x {9.0 8.0 -1 ------- null}
r -t 0.629260186743863 -s 5 -d 4 -p ack -e 40 -c 1 -i 6 -a 1 -x {5.0 0.0 0 ------- null}
+ -t 0.629260186743863 -s 4 -d 3 -p ack -e 40 -c 1 -i 6 -a 1 -x {5.0 0.0 0 ------- null}
- -t 0.629260186743863 -s 4 -d 3 -p ack -e 40 -c 1 -i 6 -a 1 -x {5.0 0.0 0 ------- null}
h -t 0.629260186743863 -s 4 -d 3 -p ack -e 40 -c 1 -i 6 -a 1 -x {5.0 0.0 -1 ------- null}
r -t 0.642726294513941 -s 7 -d 4 -p ack -e 40 -c 3 -i 7 -a 3 -x {7.0 2.0 0 ------- null}
+ -t 0.642726294513941 -s 4 -d 3 -p ack -e 40 -c 3 -i 7 -a 3 -x {7.0 2.0 0 ------- null}
- -t 0.642726294513941 -s 4 -d 3 -p ack -e 40 -c 3 -i 7 -a 3 -x {7.0 2.0 0 ------- null}
h -t 0.642726294513941 -s 4 -d 3 -p ack -e 40 -c 3 -i 7 -a 3 -x {7.0 2.0 -1 ------- null}
r -t 0.6535264 -s 4 -d 3 -p ack -e 40 -c 2 -i 4 -a 2 -x {6.0 1.0 0 ------- null}
+ -t 0.6535264 -s 3 -d 1 -p ack -e 40 -c 2 -i 4 -a 2 -x {6.0 1.0 0 ------- null}
- -t 0.6535264 -s 3 -d 1 -p ack -e 40 -c 2 -i 4 -a 2 -x {6.0 1.0 0 ------- null}
h -t 0.6535264 -s 3 -d 1 -p ack -e 40 -c 2 -i 4 -a 2 -x {6.0 1.0 -1 ------- null}
r -t 0.6535296 -s 4 -d 3 -p ack -e 40 -c 4 -i 5 -a 4 -x {9.0 8.0 0 ------- null}
+ -t 0.6535296 -s 3 -d 8 -p ack -e 40 -c 4 -i 5 -a 4 -x {9.0 8.0 0 ------- null}
- -t 0.6535296 -s 3 -d 8 -p ack -e 40 -c 4 -i 5 -a 4 -x {9.0 8.0 0 ------- null}
h -t 0.6535296 -s 3 -d 8 -p ack -e 40 -c 4 -i 5 -a 4 -x {9.0 8.0 -1 ------- null}
r -t 0.679263386743863 -s 4 -d 3 -p ack -e 40 -c 1 -i 6 -a 1 -x {5.0 0.0 0 ------- null}
+ -t 0.679263386743863 -s 3 -d 0 -p ack -e 40 -c 1 -i 6 -a 1 -x {5.0 0.0 0 ------- null}
- -t 0.679263386743863 -s 3 -d 0 -p ack -e 40 -c 1 -i 6 -a 1 -x {5.0 0.0 0 ------- null}
h -t 0.679263386743863 -s 3 -d 0 -p ack -e 40 -c 1 -i 6 -a 1 -x {5.0 0.0 -1 ------- null}
r -t 0.692729494513941 -s 4 -d 3 -p ack -e 40 -c 3 -i 7 -a 3 -x {7.0 2.0 0 ------- null}
+ -t 0.692729494513941 -s 3 -d 2 -p ack -e 40 -c 3 -i 7 -a 3 -x {7.0 2.0 0 ------- null}
- -t 0.692729494513941 -s 3 -d 2 -p ack -e 40 -c 3 -i 7 -a 3 -x {7.0 2.0 0 ------- null}
h -t 0.692729494513941 -s 3 -d 2 -p ack -e 40 -c 3 -i 7 -a 3 -x {7.0 2.0 -1 ------- null}
r -t 0.7038464 -s 3 -d 1 -p ack -e 40 -c 2 -i 4 -a 2 -x {6.0 1.0 0 ------- null}
+ -t 0.7038464 -s 1 -d 3 -p tcp -e 1040 -c 2 -i 8 -a 2 -x {1.0 6.0 1 ------- null}
- -t 0.7038464 -s 1 -d 3 -p tcp -e 1040 -c 2 -i 8 -a 2 -x {1.0 6.0 1 ------- null}
h -t 0.7038464 -s 1 -d 3 -p tcp -e 1040 -c 2 -i 8 -a 2 -x {1.0 6.0 -1 ------- null}
+ -t 0.7038464 -s 1 -d 3 -p tcp -e 1040 -c 2 -i 9 -a 2 -x {1.0 6.0 2 ------- null}
r -t 0.7038496 -s 3 -d 8 -p ack -e 40 -c 4 -i 5 -a 4 -x {9.0 8.0 0 ------- null}
+ -t 0.7038496 -s 8 -d 3 -p tcp -e 1040 -c 4 -i 10 -a 4 -x {8.0 9.0 1 ------- null}
- -t 0.7038496 -s 8 -d 3 -p tcp -e 1040 -c 4 -i 10 -a 4 -x {8.0 9.0 1 ------- null}
h -t 0.7038496 -s 8 -d 3 -p tcp -e 1040 -c 4 -i 10 -a 4 -x {8.0 9.0 -1 ------- null}
+ -t 0.7038496 -s 8 -d 3 -p tcp -e 1040 -c 4 -i 11 -a 4 -x {8.0 9.0 2 ------- null}
- -t 0.7121664 -s 1 -d 3 -p tcp -e 1040 -c 2 -i 9 -a 2 -x {1.0 6.0 2 ------- null}
h -t 0.7121664 -s 1 -d 3 -p tcp -e 1040 -c 2 -i 9 -a 2 -x {1.0 6.0 -1 ------- null}
- -t 0.7121696 -s 8 -d 3 -p tcp -e 1040 -c 4 -i 11 -a 4 -x {8.0 9.0 2 ------- null}
h -t 0.7121696 -s 8 -d 3 -p tcp -e 1040 -c 4 -i 11 -a 4 -x {8.0 9.0 -1 ------- null}
r -t 0.729583386743863 -s 3 -d 0 -p ack -e 40 -c 1 -i 6 -a 1 -x {5.0 0.0 0 ------- null}
+ -t 0.729583386743863 -s 0 -d 3 -p exp -e 1540 -c 1 -i 12 -a 1 -x {0.0 5.0 0 ------- null}
- -t 0.729583386743863 -s 0 -d 3 -p exp -e 1540 -c 1 -i 12 -a 1 -x {0.0 5.0 0 ------- null}
h -t 0.729583386743863 -s 0 -d 3 -p exp -e 1540 -c 1 -i 12 -a 1 -x {0.0 5.0 -1 ------- null}
+ -t 0.729583386743863 -s 0 -d 3 -p exp -e 1540 -c 1 -i 13 -a 1 -x {0.0 5.0 0 ------- null}
- -t 0.741903386743863 -s 0 -d 3 -p exp -e 1540 -c 1 -i 13 -a 1 -x {0.0 5.0 0 ------- null}
h -t 0.741903386743863 -s 0 -d 3 -p exp -e 1540 -c 1 -i 13 -a 1 -x {0.0 5.0 -1 ------- null}
r -t 0.743049494513941 -s 3 -d 2 -p ack -e 40 -c 3 -i 7 -a 3 -x {7.0 2.0 0 ------- null}
+ -t 0.743049494513941 -s 2 -d 3 -p exp -e 1040 -c 3 -i 14 -a 3 -x {2.0 7.0 0 ------- null}
- -t 0.743049494513941 -s 2 -d 3 -p exp -e 1040 -c 3 -i 14 -a 3 -x {2.0 7.0 0 ------- null}
h -t 0.743049494513941 -s 2 -d 3 -p exp -e 1040 -c 3 -i 14 -a 3 -x {2.0 7.0 -1 ------- null}
+ -t 0.743049494513941 -s 2 -d 3 -p exp -e 1040 -c 3 -i 15 -a 3 -x {2.0 7.0 0 ------- null}
- -t 0.751369494513941 -s 2 -d 3 -p exp -e 1040 -c 3 -i 15 -a 3 -x {2.0 7.0 0 ------- null}
h -t 0.751369494513941 -s 2 -d 3 -p exp -e 1040 -c 3 -i 15 -a 3 -x {2.0 7.0 -1 ------- null}
r -t 0.7621664 -s 1 -d 3 -p tcp -e 1040 -c 2 -i 8 -a 2 -x {1.0 6.0 1 ------- null}
+ -t 0.7621664 -s 3 -d 4 -p tcp -e 1040 -c 2 -i 8 -a 2 -x {1.0 6.0 1 ------- null}
- -t 0.7621664 -s 3 -d 4 -p tcp -e 1040 -c 2 -i 8 -a 2 -x {1.0 6.0 1 ------- null}
h -t 0.7621664 -s 3 -d 4 -p tcp -e 1040 -c 2 -i 8 -a 2 -x {1.0 6.0 -1 ------- null}
r -t 0.7621696 -s 8 -d 3 -p tcp -e 1040 -c 4 -i 10 -a 4 -x {8.0 9.0 1 ------- null}
+ -t 0.7621696 -s 3 -d 4 -p tcp -e 1040 -c 4 -i 10 -a 4 -x {8.0 9.0 1 ------- null}
- -t 0.7622496 -s 3 -d 4 -p tcp -e 1040 -c 4 -i 10 -a 4 -x {8.0 9.0 1 ------- null}
h -t 0.7622496 -s 3 -d 4 -p tcp -e 1040 -c 4 -i 10 -a 4 -x {8.0 9.0 -1 ------- null}
r -t 0.7704864 -s 1 -d 3 -p tcp -e 1040 -c 2 -i 9 -a 2 -x {1.0 6.0 2 ------- null}
+ -t 0.7704864 -s 3 -d 4 -p tcp -e 1040 -c 2 -i 9 -a 2 -x {1.0 6.0 2 ------- null}
- -t 0.7704864 -s 3 -d 4 -p tcp -e 1040 -c 2 -i 9 -a 2 -x {1.0 6.0 2 ------- null}
h -t 0.7704864 -s 3 -d 4 -p tcp -e 1040 -c 2 -i 9 -a 2 -x {1.0 6.0 -1 ------- null}
r -t 0.7704896 -s 8 -d 3 -p tcp -e 1040 -c 4 -i 11 -a 4 -x {8.0 9.0 2 ------- null}
+ -t 0.7704896 -s 3 -d 4 -p tcp -e 1040 -c 4 -i 11 -a 4 -x {8.0 9.0 2 ------- null}
- -t 0.7705696 -s 3 -d 4 -p tcp -e 1040 -c 4 -i 11 -a 4 -x {8.0 9.0 2 ------- null}
h -t 0.7705696 -s 3 -d 4 -p tcp -e 1040 -c 4 -i 11 -a 4 -x {8.0 9.0 -1 ------- null}
r -t 0.791903386743864 -s 0 -d 3 -p exp -e 1540 -c 1 -i 12 -a 1 -x {0.0 5.0 0 ------- null}
+ -t 0.791903386743864 -s 3 -d 4 -p exp -e 1540 -c 1 -i 12 -a 1 -x {0.0 5.0 0 ------- null}
- -t 0.791903386743864 -s 3 -d 4 -p exp -e 1540 -c 1 -i 12 -a 1 -x {0.0 5.0 0 ------- null}
h -t 0.791903386743864 -s 3 -d 4 -p exp -e 1540 -c 1 -i 12 -a 1 -x {0.0 5.0 -1 ------- null}
r -t 0.801369494513941 -s 2 -d 3 -p exp -e 1040 -c 3 -i 14 -a 3 -x {2.0 7.0 0 ------- null}
+ -t 0.801369494513941 -s 3 -d 4 -p exp -e 1040 -c 3 -i 14 -a 3 -x {2.0 7.0 0 ------- null}
- -t 0.801369494513941 -s 3 -d 4 -p exp -e 1040 -c 3 -i 14 -a 3 -x {2.0 7.0 0 ------- null}
h -t 0.801369494513941 -s 3 -d 4 -p exp -e 1040 -c 3 -i 14 -a 3 -x {2.0 7.0 -1 ------- null}
r -t 0.804223386743864 -s 0 -d 3 -p exp -e 1540 -c 1 -i 13 -a 1 -x {0.0 5.0 0 ------- null}
+ -t 0.804223386743864 -s 3 -d 4 -p exp -e 1540 -c 1 -i 13 -a 1 -x {0.0 5.0 0 ------- null}
- -t 0.804223386743864 -s 3 -d 4 -p exp -e 1540 -c 1 -i 13 -a 1 -x {0.0 5.0 0 ------- null}
h -t 0.804223386743864 -s 3 -d 4 -p exp -e 1540 -c 1 -i 13 -a 1 -x {0.0 5.0 -1 ------- null}
r -t 0.809689494513941 -s 2 -d 3 -p exp -e 1040 -c 3 -i 15 -a 3 -x {2.0 7.0 0 ------- null}
+ -t 0.809689494513941 -s 3 -d 4 -p exp -e 1040 -c 3 -i 15 -a 3 -x {2.0 7.0 0 ------- null}
- -t 0.809689494513941 -s 3 -d 4 -p exp -e 1040 -c 3 -i 15 -a 3 -x {2.0 7.0 0 ------- null}
h -t 0.809689494513941 -s 3 -d 4 -p exp -e 1040 -c 3 -i 15 -a 3 -x {2.0 7.0 -1 ------- null}
r -t 0.8122496 -s 3 -d 4 -p tcp -e 1040 -c 2 -i 8 -a 2 -x {1.0 6.0 1 ------- null}
+ -t 0.8122496 -s 4 -d 6 -p tcp -e 1040 -c 2 -i 8 -a 2 -x {1.0 6.0 1 ------- null}
- -t 0.8122496 -s 4 -d 6 -p tcp -e 1040 -c 2 -i 8 -a 2 -x {1.0 6.0 1 ------- null}
h -t 0.8122496 -s 4 -d 6 -p tcp -e 1040 -c 2 -i 8 -a 2 -x {1.0 6.0 -1 ------- null}
r -t 0.8123328 -s 3 -d 4 -p tcp -e 1040 -c 4 -i 10 -a 4 -x {8.0 9.0 1 ------- null}
+ -t 0.8123328 -s 4 -d 9 -p tcp -e 1040 -c 4 -i 10 -a 4 -x {8.0 9.0 1 ------- null}
- -t 0.8123328 -s 4 -d 9 -p tcp -e 1040 -c 4 -i 10 -a 4 -x {8.0 9.0 1 ------- null}
h -t 0.8123328 -s 4 -d 9 -p tcp -e 1040 -c 4 -i 10 -a 4 -x {8.0 9.0 -1 ------- null}
r -t 0.8205696 -s 3 -d 4 -p tcp -e 1040 -c 2 -i 9 -a 2 -x {1.0 6.0 2 ------- null}
+ -t 0.8205696 -s 4 -d 6 -p tcp -e 1040 -c 2 -i 9 -a 2 -x {1.0 6.0 2 ------- null}
r -t 0.8206528 -s 3 -d 4 -p tcp -e 1040 -c 4 -i 11 -a 4 -x {8.0 9.0 2 ------- null}
+ -t 0.8206528 -s 4 -d 9 -p tcp -e 1040 -c 4 -i 11 -a 4 -x {8.0 9.0 2 ------- null}
r -t 0.842026586743864 -s 3 -d 4 -p exp -e 1540 -c 1 -i 12 -a 1 -x {0.0 5.0 0 ------- null}
+ -t 0.842026586743864 -s 4 -d 5 -p exp -e 1540 -c 1 -i 12 -a 1 -x {0.0 5.0 0 ------- null}
- -t 0.842026586743864 -s 4 -d 5 -p exp -e 1540 -c 1 -i 12 -a 1 -x {0.0 5.0 0 ------- null}
h -t 0.842026586743864 -s 4 -d 5 -p exp -e 1540 -c 1 -i 12 -a 1 -x {0.0 5.0 -1 ------- null}
r -t 0.851452694513941 -s 3 -d 4 -p exp -e 1040 -c 3 -i 14 -a 3 -x {2.0 7.0 0 ------- null}
+ -t 0.851452694513941 -s 4 -d 7 -p exp -e 1040 -c 3 -i 14 -a 3 -x {2.0 7.0 0 ------- null}
- -t 0.851452694513941 -s 4 -d 7 -p exp -e 1040 -c 3 -i 14 -a 3 -x {2.0 7.0 0 ------- null}
h -t 0.851452694513941 -s 4 -d 7 -p exp -e 1040 -c 3 -i 14 -a 3 -x {2.0 7.0 -1 ------- null}
- -t 0.8538496 -s 4 -d 6 -p tcp -e 1040 -c 2 -i 9 -a 2 -x {1.0 6.0 2 ------- null}
h -t 0.8538496 -s 4 -d 6 -p tcp -e 1040 -c 2 -i 9 -a 2 -x {1.0 6.0 -1 ------- null}
- -t 0.8539328 -s 4 -d 9 -p tcp -e 1040 -c 4 -i 11 -a 4 -x {8.0 9.0 2 ------- null}
h -t 0.8539328 -s 4 -d 9 -p tcp -e 1040 -c 4 -i 11 -a 4 -x {8.0 9.0 -1 ------- null}
r -t 0.854346586743864 -s 3 -d 4 -p exp -e 1540 -c 1 -i 13 -a 1 -x {0.0 5.0 0 ------- null}
+ -t 0.854346586743864 -s 4 -d 5 -p exp -e 1540 -c 1 -i 13 -a 1 -x {0.0 5.0 0 ------- null}
r -t 0.859772694513941 -s 3 -d 4 -p exp -e 1040 -c 3 -i 15 -a 3 -x {2.0 7.0 0 ------- null}
+ -t 0.859772694513941 -s 4 -d 7 -p exp -e 1040 -c 3 -i 15 -a 3 -x {2.0 7.0 0 ------- null}
- -t 0.893052694513941 -s 4 -d 7 -p exp -e 1040 -c 3 -i 15 -a 3 -x {2.0 7.0 0 ------- null}
h -t 0.893052694513941 -s 4 -d 7 -p exp -e 1040 -c 3 -i 15 -a 3 -x {2.0 7.0 -1 ------- null}
- -t 0.903626586743864 -s 4 -d 5 -p exp -e 1540 -c 1 -i 13 -a 1 -x {0.0 5.0 0 ------- null}
h -t 0.903626586743864 -s 4 -d 5 -p exp -e 1540 -c 1 -i 13 -a 1 -x {0.0 5.0 -1 ------- null}
r -t 1.0538496 -s 4 -d 6 -p tcp -e 1040 -c 2 -i 8 -a 2 -x {1.0 6.0 1 ------- null}
+ -t 1.0538496 -s 6 -d 4 -p ack -e 40 -c 2 -i 16 -a 2 -x {6.0 1.0 1 ------- null}
- -t 1.0538496 -s 6 -d 4 -p ack -e 40 -c 2 -i 16 -a 2 -x {6.0 1.0 1 ------- null}
h -t 1.0538496 -s 6 -d 4 -p ack -e 40 -c 2 -i 16 -a 2 -x {6.0 1.0 -1 ------- null}
r -t 1.0539328 -s 4 -d 9 -p tcp -e 1040 -c 4 -i 10 -a 4 -x {8.0 9.0 1 ------- null}
+ -t 1.0539328 -s 9 -d 4 -p ack -e 40 -c 4 -i 17 -a 4 -x {9.0 8.0 1 ------- null}
- -t 1.0539328 -s 9 -d 4 -p ack -e 40 -c 4 -i 17 -a 4 -x {9.0 8.0 1 ------- null}
h -t 1.0539328 -s 9 -d 4 -p ack -e 40 -c 4 -i 17 -a 4 -x {9.0 8.0 -1 ------- null}
r -t 1.09305269451394 -s 4 -d 7 -p exp -e 1040 -c 3 -i 14 -a 3 -x {2.0 7.0 0 ------- null}
+ -t 1.09305269451394 -s 7 -d 4 -p ack -e 40 -c 3 -i 18 -a 3 -x {7.0 2.0 1 ------- null}
- -t 1.09305269451394 -s 7 -d 4 -p ack -e 40 -c 3 -i 18 -a 3 -x {7.0 2.0 1 ------- null}
h -t 1.09305269451394 -s 7 -d 4 -p ack -e 40 -c 3 -i 18 -a 3 -x {7.0 2.0 -1 ------- null}
r -t 1.0954496 -s 4 -d 6 -p tcp -e 1040 -c 2 -i 9 -a 2 -x {1.0 6.0 2 ------- null}
+ -t 1.0954496 -s 6 -d 4 -p ack -e 40 -c 2 -i 19 -a 2 -x {6.0 1.0 2 ------- null}
- -t 1.0954496 -s 6 -d 4 -p ack -e 40 -c 2 -i 19 -a 2 -x {6.0 1.0 2 ------- null}
h -t 1.0954496 -s 6 -d 4 -p ack -e 40 -c 2 -i 19 -a 2 -x {6.0 1.0 -1 ------- null}
r -t 1.0955328 -s 4 -d 9 -p tcp -e 1040 -c 4 -i 11 -a 4 -x {8.0 9.0 2 ------- null}
+ -t 1.0955328 -s 9 -d 4 -p ack -e 40 -c 4 -i 20 -a 4 -x {9.0 8.0 2 ------- null}
- -t 1.0955328 -s 9 -d 4 -p ack -e 40 -c 4 -i 20 -a 4 -x {9.0 8.0 2 ------- null}
h -t 1.0955328 -s 9 -d 4 -p ack -e 40 -c 4 -i 20 -a 4 -x {9.0 8.0 -1 ------- null}
r -t 1.10362658674386 -s 4 -d 5 -p exp -e 1540 -c 1 -i 12 -a 1 -x {0.0 5.0 0 ------- null}
+ -t 1.10362658674386 -s 5 -d 4 -p ack -e 40 -c 1 -i 21 -a 1 -x {5.0 0.0 1 ------- null}
- -t 1.10362658674386 -s 5 -d 4 -p ack -e 40 -c 1 -i 21 -a 1 -x {5.0 0.0 1 ------- null}
h -t 1.10362658674386 -s 5 -d 4 -p ack -e 40 -c 1 -i 21 -a 1 -x {5.0 0.0 -1 ------- null}
r -t 1.13465269451394 -s 4 -d 7 -p exp -e 1040 -c 3 -i 15 -a 3 -x {2.0 7.0 0 ------- null}
+ -t 1.13465269451394 -s 7 -d 4 -p ack -e 40 -c 3 -i 22 -a 3 -x {7.0 2.0 2 ------- null}
- -t 1.13465269451394 -s 7 -d 4 -p ack -e 40 -c 3 -i 22 -a 3 -x {7.0 2.0 2 ------- null}
h -t 1.13465269451394 -s 7 -d 4 -p ack -e 40 -c 3 -i 22 -a 3 -x {7.0 2.0 -1 ------- null}
r -t 1.16522658674386 -s 4 -d 5 -p exp -e 1540 -c 1 -i 13 -a 1 -x {0.0 5.0 0 ------- null}
+ -t 1.16522658674386 -s 5 -d 4 -p ack -e 40 -c 1 -i 23 -a 1 -x {5.0 0.0 2 ------- null}
- -t 1.16522658674386 -s 5 -d 4 -p ack -e 40 -c 1 -i 23 -a 1 -x {5.0 0.0 2 ------- null}
h -t 1.16522658674386 -s 5 -d 4 -p ack -e 40 -c 1 -i 23 -a 1 -x {5.0 0.0 -1 ------- null}
r -t 1.2554496 -s 6 -d 4 -p ack -e 40 -c 2 -i 16 -a 2 -x {6.0 1.0 1 ------- null}
+ -t 1.2554496 -s 4 -d 3 -p ack -e 40 -c 2 -i 16 -a 2 -x {6.0 1.0 1 ------- null}
- -t 1.2554496 -s 4 -d 3 -p ack -e 40 -c 2 -i 16 -a 2 -x {6.0 1.0 1 ------- null}
h -t 1.2554496 -s 4 -d 3 -p ack -e 40 -c 2 -i 16 -a 2 -x {6.0 1.0 -1 ------- null}
r -t 1.2555328 -s 9 -d 4 -p ack -e 40 -c 4 -i 17 -a 4 -x {9.0 8.0 1 ------- null}
+ -t 1.2555328 -s 4 -d 3 -p ack -e 40 -c 4 -i 17 -a 4 -x {9.0 8.0 1 ------- null}
- -t 1.2555328 -s 4 -d 3 -p ack -e 40 -c 4 -i 17 -a 4 -x {9.0 8.0 1 ------- null}
h -t 1.2555328 -s 4 -d 3 -p ack -e 40 -c 4 -i 17 -a 4 -x {9.0 8.0 -1 ------- null}
r -t 1.29465269451394 -s 7 -d 4 -p ack -e 40 -c 3 -i 18 -a 3 -x {7.0 2.0 1 ------- null}
+ -t 1.29465269451394 -s 4 -d 3 -p ack -e 40 -c 3 -i 18 -a 3 -x {7.0 2.0 1 ------- null}
- -t 1.29465269451394 -s 4 -d 3 -p ack -e 40 -c 3 -i 18 -a 3 -x {7.0 2.0 1 ------- null}
h -t 1.29465269451394 -s 4 -d 3 -p ack -e 40 -c 3 -i 18 -a 3 -x {7.0 2.0 -1 ------- null}
r -t 1.2970496 -s 6 -d 4 -p ack -e 40 -c 2 -i 19 -a 2 -x {6.0 1.0 2 ------- null}
+ -t 1.2970496 -s 4 -d 3 -p ack -e 40 -c 2 -i 19 -a 2 -x {6.0 1.0 2 ------- null}
- -t 1.2970496 -s 4 -d 3 -p ack -e 40 -c 2 -i 19 -a 2 -x {6.0 1.0 2 ------- null}
h -t 1.2970496 -s 4 -d 3 -p ack -e 40 -c 2 -i 19 -a 2 -x {6.0 1.0 -1 ------- null}
r -t 1.2971328 -s 9 -d 4 -p ack -e 40 -c 4 -i 20 -a 4 -x {9.0 8.0 2 ------- null}
+ -t 1.2971328 -s 4 -d 3 -p ack -e 40 -c 4 -i 20 -a 4 -x {9.0 8.0 2 ------- null}
- -t 1.2971328 -s 4 -d 3 -p ack -e 40 -c 4 -i 20 -a 4 -x {9.0 8.0 2 ------- null}
h -t 1.2971328 -s 4 -d 3 -p ack -e 40 -c 4 -i 20 -a 4 -x {9.0 8.0 -1 ------- null}
r -t 1.30522658674386 -s 5 -d 4 -p ack -e 40 -c 1 -i 21 -a 1 -x {5.0 0.0 1 ------- null}
+ -t 1.30522658674386 -s 4 -d 3 -p ack -e 40 -c 1 -i 21 -a 1 -x {5.0 0.0 1 ------- null}
- -t 1.30522658674386 -s 4 -d 3 -p ack -e 40 -c 1 -i 21 -a 1 -x {5.0 0.0 1 ------- null}
h -t 1.30522658674386 -s 4 -d 3 -p ack -e 40 -c 1 -i 21 -a 1 -x {5.0 0.0 -1 ------- null}
r -t 1.3054528 -s 4 -d 3 -p ack -e 40 -c 2 -i 16 -a 2 -x {6.0 1.0 1 ------- null}
+ -t 1.3054528 -s 3 -d 1 -p ack -e 40 -c 2 -i 16 -a 2 -x {6.0 1.0 1 ------- null}
- -t 1.3054528 -s 3 -d 1 -p ack -e 40 -c 2 -i 16 -a 2 -x {6.0 1.0 1 ------- null}
h -t 1.3054528 -s 3 -d 1 -p ack -e 40 -c 2 -i 16 -a 2 -x {6.0 1.0 -1 ------- null}
r -t 1.305536 -s 4 -d 3 -p ack -e 40 -c 4 -i 17 -a 4 -x {9.0 8.0 1 ------- null}
+ -t 1.305536 -s 3 -d 8 -p ack -e 40 -c 4 -i 17 -a 4 -x {9.0 8.0 1 ------- null}
- -t 1.305536 -s 3 -d 8 -p ack -e 40 -c 4 -i 17 -a 4 -x {9.0 8.0 1 ------- null}
h -t 1.305536 -s 3 -d 8 -p ack -e 40 -c 4 -i 17 -a 4 -x {9.0 8.0 -1 ------- null}
r -t 1.33625269451394 -s 7 -d 4 -p ack -e 40 -c 3 -i 22 -a 3 -x {7.0 2.0 2 ------- null}
+ -t 1.33625269451394 -s 4 -d 3 -p ack -e 40 -c 3 -i 22 -a 3 -x {7.0 2.0 2 ------- null}
- -t 1.33625269451394 -s 4 -d 3 -p ack -e 40 -c 3 -i 22 -a 3 -x {7.0 2.0 2 ------- null}
h -t 1.33625269451394 -s 4 -d 3 -p ack -e 40 -c 3 -i 22 -a 3 -x {7.0 2.0 -1 ------- null}
r -t 1.34465589451394 -s 4 -d 3 -p ack -e 40 -c 3 -i 18 -a 3 -x {7.0 2.0 1 ------- null}
+ -t 1.34465589451394 -s 3 -d 2 -p ack -e 40 -c 3 -i 18 -a 3 -x {7.0 2.0 1 ------- null}
- -t 1.34465589451394 -s 3 -d 2 -p ack -e 40 -c 3 -i 18 -a 3 -x {7.0 2.0 1 ------- null}
h -t 1.34465589451394 -s 3 -d 2 -p ack -e 40 -c 3 -i 18 -a 3 -x {7.0 2.0 -1 ------- null}
r -t 1.3470528 -s 4 -d 3 -p ack -e 40 -c 2 -i 19 -a 2 -x {6.0 1.0 2 ------- null}
+ -t 1.3470528 -s 3 -d 1 -p ack -e 40 -c 2 -i 19 -a 2 -x {6.0 1.0 2 ------- null}
- -t 1.3470528 -s 3 -d 1 -p ack -e 40 -c 2 -i 19 -a 2 -x {6.0 1.0 2 ------- null}
h -t 1.3470528 -s 3 -d 1 -p ack -e 40 -c 2 -i 19 -a 2 -x {6.0 1.0 -1 ------- null}
r -t 1.347136 -s 4 -d 3 -p ack -e 40 -c 4 -i 20 -a 4 -x {9.0 8.0 2 ------- null}
+ -t 1.347136 -s 3 -d 8 -p ack -e 40 -c 4 -i 20 -a 4 -x {9.0 8.0 2 ------- null}
- -t 1.347136 -s 3 -d 8 -p ack -e 40 -c 4 -i 20 -a 4 -x {9.0 8.0 2 ------- null}
h -t 1.347136 -s 3 -d 8 -p ack -e 40 -c 4 -i 20 -a 4 -x {9.0 8.0 -1 ------- null}
r -t 1.35522978674386 -s 4 -d 3 -p ack -e 40 -c 1 -i 21 -a 1 -x {5.0 0.0 1 ------- null}
+ -t 1.35522978674386 -s 3 -d 0 -p ack -e 40 -c 1 -i 21 -a 1 -x {5.0 0.0 1 ------- null}
- -t 1.35522978674386 -s 3 -d 0 -p ack -e 40 -c 1 -i 21 -a 1 -x {5.0 0.0 1 ------- null}
h -t 1.35522978674386 -s 3 -d 0 -p ack -e 40 -c 1 -i 21 -a 1 -x {5.0 0.0 -1 ------- null}
r -t 1.3557728 -s 3 -d 1 -p ack -e 40 -c 2 -i 16 -a 2 -x {6.0 1.0 1 ------- null}
+ -t 1.3557728 -s 1 -d 3 -p tcp -e 1040 -c 2 -i 24 -a 2 -x {1.0 6.0 3 ------- null}
- -t 1.3557728 -s 1 -d 3 -p tcp -e 1040 -c 2 -i 24 -a 2 -x {1.0 6.0 3 ------- null}
h -t 1.3557728 -s 1 -d 3 -p tcp -e 1040 -c 2 -i 24 -a 2 -x {1.0 6.0 -1 ------- null}
+ -t 1.3557728 -s 1 -d 3 -p tcp -e 1040 -c 2 -i 25 -a 2 -x {1.0 6.0 4 ------- null}
r -t 1.355856 -s 3 -d 8 -p ack -e 40 -c 4 -i 17 -a 4 -x {9.0 8.0 1 ------- null}
+ -t 1.355856 -s 8 -d 3 -p tcp -e 1040 -c 4 -i 26 -a 4 -x {8.0 9.0 3 ------- null}
- -t 1.355856 -s 8 -d 3 -p tcp -e 1040 -c 4 -i 26 -a 4 -x {8.0 9.0 3 ------- null}
h -t 1.355856 -s 8 -d 3 -p tcp -e 1040 -c 4 -i 26 -a 4 -x {8.0 9.0 -1 ------- null}
+ -t 1.355856 -s 8 -d 3 -p tcp -e 1040 -c 4 -i 27 -a 4 -x {8.0 9.0 4 ------- null}
- -t 1.3640928 -s 1 -d 3 -p tcp -e 1040 -c 2 -i 25 -a 2 -x {1.0 6.0 4 ------- null}
h -t 1.3640928 -s 1 -d 3 -p tcp -e 1040 -c 2 -i 25 -a 2 -x {1.0 6.0 -1 ------- null}
- -t 1.364176 -s 8 -d 3 -p tcp -e 1040 -c 4 -i 27 -a 4 -x {8.0 9.0 4 ------- null}
h -t 1.364176 -s 8 -d 3 -p tcp -e 1040 -c 4 -i 27 -a 4 -x {8.0 9.0 -1 ------- null}
r -t 1.36682658674386 -s 5 -d 4 -p ack -e 40 -c 1 -i 23 -a 1 -x {5.0 0.0 2 ------- null}
+ -t 1.36682658674386 -s 4 -d 3 -p ack -e 40 -c 1 -i 23 -a 1 -x {5.0 0.0 2 ------- null}
- -t 1.36682658674386 -s 4 -d 3 -p ack -e 40 -c 1 -i 23 -a 1 -x {5.0 0.0 2 ------- null}
h -t 1.36682658674386 -s 4 -d 3 -p ack -e 40 -c 1 -i 23 -a 1 -x {5.0 0.0 -1 ------- null}
r -t 1.38625589451394 -s 4 -d 3 -p ack -e 40 -c 3 -i 22 -a 3 -x {7.0 2.0 2 ------- null}
+ -t 1.38625589451394 -s 3 -d 2 -p ack -e 40 -c 3 -i 22 -a 3 -x {7.0 2.0 2 ------- null}
- -t 1.38625589451394 -s 3 -d 2 -p ack -e 40 -c 3 -i 22 -a 3 -x {7.0 2.0 2 ------- null}
h -t 1.38625589451394 -s 3 -d 2 -p ack -e 40 -c 3 -i 22 -a 3 -x {7.0 2.0 -1 ------- null}
r -t 1.39497589451394 -s 3 -d 2 -p ack -e 40 -c 3 -i 18 -a 3 -x {7.0 2.0 1 ------- null}
+ -t 1.39497589451394 -s 2 -d 3 -p exp -e 1040 -c 3 -i 28 -a 3 -x {2.0 7.0 0 ------- null}
- -t 1.39497589451394 -s 2 -d 3 -p exp -e 1040 -c 3 -i 28 -a 3 -x {2.0 7.0 0 ------- null}
h -t 1.39497589451394 -s 2 -d 3 -p exp -e 1040 -c 3 -i 28 -a 3 -x {2.0 7.0 -1 ------- null}
+ -t 1.39497589451394 -s 2 -d 3 -p exp -e 1040 -c 3 -i 29 -a 3 -x {2.0 7.0 0 ------- null}
r -t 1.3973728 -s 3 -d 1 -p ack -e 40 -c 2 -i 19 -a 2 -x {6.0 1.0 2 ------- null}
+ -t 1.3973728 -s 1 -d 3 -p tcp -e 1040 -c 2 -i 30 -a 2 -x {1.0 6.0 5 ------- null}
- -t 1.3973728 -s 1 -d 3 -p tcp -e 1040 -c 2 -i 30 -a 2 -x {1.0 6.0 5 ------- null}
h -t 1.3973728 -s 1 -d 3 -p tcp -e 1040 -c 2 -i 30 -a 2 -x {1.0 6.0 -1 ------- null}
+ -t 1.3973728 -s 1 -d 3 -p tcp -e 1040 -c 2 -i 31 -a 2 -x {1.0 6.0 6 ------- null}
r -t 1.397456 -s 3 -d 8 -p ack -e 40 -c 4 -i 20 -a 4 -x {9.0 8.0 2 ------- null}
+ -t 1.397456 -s 8 -d 3 -p tcp -e 1040 -c 4 -i 32 -a 4 -x {8.0 9.0 5 ------- null}
- -t 1.397456 -s 8 -d 3 -p tcp -e 1040 -c 4 -i 32 -a 4 -x {8.0 9.0 5 ------- null}
h -t 1.397456 -s 8 -d 3 -p tcp -e 1040 -c 4 -i 32 -a 4 -x {8.0 9.0 -1 ------- null}
+ -t 1.397456 -s 8 -d 3 -p tcp -e 1040 -c 4 -i 33 -a 4 -x {8.0 9.0 6 ------- null}
- -t 1.40329589451394 -s 2 -d 3 -p exp -e 1040 -c 3 -i 29 -a 3 -x {2.0 7.0 0 ------- null}
h -t 1.40329589451394 -s 2 -d 3 -p exp -e 1040 -c 3 -i 29 -a 3 -x {2.0 7.0 -1 ------- null}
r -t 1.40554978674386 -s 3 -d 0 -p ack -e 40 -c 1 -i 21 -a 1 -x {5.0 0.0 1 ------- null}
+ -t 1.40554978674386 -s 0 -d 3 -p exp -e 1540 -c 1 -i 34 -a 1 -x {0.0 5.0 0 ------- null}
- -t 1.40554978674386 -s 0 -d 3 -p exp -e 1540 -c 1 -i 34 -a 1 -x {0.0 5.0 0 ------- null}
h -t 1.40554978674386 -s 0 -d 3 -p exp -e 1540 -c 1 -i 34 -a 1 -x {0.0 5.0 -1 ------- null}
+ -t 1.40554978674386 -s 0 -d 3 -p exp -e 1540 -c 1 -i 35 -a 1 -x {0.0 5.0 0 ------- null}
- -t 1.4056928 -s 1 -d 3 -p tcp -e 1040 -c 2 -i 31 -a 2 -x {1.0 6.0 6 ------- null}
h -t 1.4056928 -s 1 -d 3 -p tcp -e 1040 -c 2 -i 31 -a 2 -x {1.0 6.0 -1 ------- null}
- -t 1.405776 -s 8 -d 3 -p tcp -e 1040 -c 4 -i 33 -a 4 -x {8.0 9.0 6 ------- null}
h -t 1.405776 -s 8 -d 3 -p tcp -e 1040 -c 4 -i 33 -a 4 -x {8.0 9.0 -1 ------- null}
r -t 1.4140928 -s 1 -d 3 -p tcp -e 1040 -c 2 -i 24 -a 2 -x {1.0 6.0 3 ------- null}
+ -t 1.4140928 -s 3 -d 4 -p tcp -e 1040 -c 2 -i 24 -a 2 -x {1.0 6.0 3 ------- null}
- -t 1.4140928 -s 3 -d 4 -p tcp -e 1040 -c 2 -i 24 -a 2 -x {1.0 6.0 3 ------- null}
h -t 1.4140928 -s 3 -d 4 -p tcp -e 1040 -c 2 -i 24 -a 2 -x {1.0 6.0 -1 ------- null}
r -t 1.414176 -s 8 -d 3 -p tcp -e 1040 -c 4 -i 26 -a 4 -x {8.0 9.0 3 ------- null}
+ -t 1.414176 -s 3 -d 4 -p tcp -e 1040 -c 4 -i 26 -a 4 -x {8.0 9.0 3 ------- null}
- -t 1.414176 -s 3 -d 4 -p tcp -e 1040 -c 4 -i 26 -a 4 -x {8.0 9.0 3 ------- null}
h -t 1.414176 -s 3 -d 4 -p tcp -e 1040 -c 4 -i 26 -a 4 -x {8.0 9.0 -1 ------- null}
r -t 1.41682978674386 -s 4 -d 3 -p ack -e 40 -c 1 -i 23 -a 1 -x {5.0 0.0 2 ------- null}
+ -t 1.41682978674386 -s 3 -d 0 -p ack -e 40 -c 1 -i 23 -a 1 -x {5.0 0.0 2 ------- null}
- -t 1.41682978674386 -s 3 -d 0 -p ack -e 40 -c 1 -i 23 -a 1 -x {5.0 0.0 2 ------- null}
h -t 1.41682978674386 -s 3 -d 0 -p ack -e 40 -c 1 -i 23 -a 1 -x {5.0 0.0 -1 ------- null}
- -t 1.41786978674386 -s 0 -d 3 -p exp -e 1540 -c 1 -i 35 -a 1 -x {0.0 5.0 0 ------- null}
h -t 1.41786978674386 -s 0 -d 3 -p exp -e 1540 -c 1 -i 35 -a 1 -x {0.0 5.0 -1 ------- null}
r -t 1.4224128 -s 1 -d 3 -p tcp -e 1040 -c 2 -i 25 -a 2 -x {1.0 6.0 4 ------- null}
+ -t 1.4224128 -s 3 -d 4 -p tcp -e 1040 -c 2 -i 25 -a 2 -x {1.0 6.0 4 ------- null}