+ 0.1 0 1 tcp 40 ------- 1 0.0 4.0 0 0
- 0.1 0 1 tcp 40 ------- 1 0.0 4.0 0 0
+ 0.1 3 2 tcp 40 ------- 4 3.0 7.0 0 1
- 0.1 3 2 tcp 40 ------- 4 3.0 7.0 0 1
+ 0.125737 2 3 exp 40 ------- 3 2.0 6.0 0 2
- 0.125737 2 3 exp 40 ------- 3 2.0 6.0 0 2
+ 0.139203 1 2 exp 40 ------- 2 1.0 5.0 0 3
- 0.139203 1 2 exp 40 ------- 2 1.0 5.0 0 3
r 0.15032 0 1 tcp 40 ------- 1 0.0 4.0 0 0
+ 0.15032 1 2 tcp 40 ------- 1 0.0 4.0 0 0
- 0.15032 1 2 tcp 40 ------- 1 0.0 4.0 0 0
r 0.15032 3 2 tcp 40 ------- 4 3.0 7.0 0 1
+ 0.15032 2 1 tcp 40 ------- 4 3.0 7.0 0 1
- 0.15032 2 1 tcp 40 ------- 4 3.0 7.0 0 1
r 0.176057 2 3 exp 40 ------- 3 2.0 6.0 0 2
+ 0.176057 3 4 exp 40 ------- 3 2.0 6.0 0 2
- 0.176057 3 4 exp 40 ------- 3 2.0 6.0 0 2
r 0.340803 1 2 exp 40 ------- 2 1.0 5.0 0 3
+ 0.340803 2 3 exp 40 ------- 2 1.0 5.0 0 3
- 0.340803 2 3 exp 40 ------- 2 1.0 5.0 0 3
r 0.35192 1 2 tcp 40 ------- 1 0.0 4.0 0 0
+ 0.35192 2 3 tcp 40 ------- 1 0.0 4.0 0 0
- 0.35192 2 3 tcp 40 ------- 1 0.0 4.0 0 0
r 0.35192 2 1 tcp 40 ------- 4 3.0 7.0 0 1
+ 0.35192 1 0 tcp 40 ------- 4 3.0 7.0 0 1
- 0.35192 1 0 tcp 40 ------- 4 3.0 7.0 0 1
r 0.377657 3 4 exp 40 ------- 3 2.0 6.0 0 2
+ 0.377657 4 5 exp 40 ------- 3 2.0 6.0 0 2
- 0.377657 4 5 exp 40 ------- 3 2.0 6.0 0 2
r 0.391123 2 3 exp 40 ------- 2 1.0 5.0 0 3
+ 0.391123 3 4 exp 40 ------- 2 1.0 5.0 0 3
- 0.391123 3 4 exp 40 ------- 2 1.0 5.0 0 3
r 0.40224 2 3 tcp 40 ------- 1 0.0 4.0 0 0
+ 0.40224 3 4 tcp 40 ------- 1 0.0 4.0 0 0
- 0.40224 3 4 tcp 40 ------- 1 0.0 4.0 0 0
r 0.40224 1 0 tcp 40 ------- 4 3.0 7.0 0 1
+ 0.40224 0 7 tcp 40 ------- 4 3.0 7.0 0 1
- 0.40224 0 7 tcp 40 ------- 4 3.0 7.0 0 1
r 0.427977 4 5 exp 40 ------- 3 2.0 6.0 0 2
+ 0.427977 5 6 exp 40 ------- 3 2.0 6.0 0 2
- 0.427977 5 6 exp 40 ------- 3 2.0 6.0 0 2
r 0.592723 3 4 exp 40 ------- 2 1.0 5.0 0 3
+ 0.592723 4 5 exp 40 ------- 2 1.0 5.0 0 3
- 0.592723 4 5 exp 40 ------- 2 1.0 5.0 0 3
r 0.60384 3 4 tcp 40 ------- 1 0.0 4.0 0 0
+ 0.60384 4 3 ack 40 ------- 1 4.0 0.0 0 4
- 0.60384 4 3 ack 40 ------- 1 4.0 0.0 0 4
r 0.60384 0 7 tcp 40 ------- 4 3.0 7.0 0 1
+ 0.60384 7 0 ack 40 ------- 4 7.0 3.0 0 5
- 0.60384 7 0 ack 40 ------- 4 7.0 3.0 0 5
r 0.629577 5 6 exp 40 ------- 3 2.0 6.0 0 2
+ 0.629577 6 7 ack 40 ------- 3 6.0 2.0 0 6
- 0.629577 6 7 ack 40 ------- 3 6.0 2.0 0 6
r 0.643043 4 5 exp 40 ------- 2 1.0 5.0 0 3
+ 0.643043 5 6 ack 40 ------- 2 5.0 1.0 0 7
- 0.643043 5 6 ack 40 ------- 2 5.0 1.0 0 7
r 0.679897 6 7 ack 40 ------- 3 6.0 2.0 0 6
+ 0.679897 7 0 ack 40 ------- 3 6.0 2.0 0 6
- 0.679897 7 0 ack 40 ------- 3 6.0 2.0 0 6
r 0.80544 4 3 ack 40 ------- 1 4.0 0.0 0 4
+ 0.80544 3 2 ack 40 ------- 1 4.0 0.0 0 4
- 0.80544 3 2 ack 40 ------- 1 4.0 0.0 0 4
r 0.80544 7 0 ack 40 ------- 4 7.0 3.0 0 5
+ 0.80544 0 1 ack 40 ------- 4 7.0 3.0 0 5
- 0.80544 0 1 ack 40 ------- 4 7.0 3.0 0 5
r 0.844643 5 6 ack 40 ------- 2 5.0 1.0 0 7
+ 0.844643 6 7 ack 40 ------- 2 5.0 1.0 0 7
- 0.844643 6 7 ack 40 ------- 2 5.0 1.0 0 7
r 0.85576 3 2 ack 40 ------- 1 4.0 0.0 0 4
+ 0.85576 2 1 ack 40 ------- 1 4.0 0.0 0 4
- 0.85576 2 1 ack 40 ------- 1 4.0 0.0 0 4
r 0.85576 0 1 ack 40 ------- 4 7.0 3.0 0 5
+ 0.85576 1 2 ack 40 ------- 4 7.0 3.0 0 5
- 0.85576 1 2 ack 40 ------- 4 7.0 3.0 0 5
r 0.881497 7 0 ack 40 ------- 3 6.0 2.0 0 6
+ 0.881497 0 1 ack 40 ------- 3 6.0 2.0 0 6
- 0.881497 0 1 ack 40 ------- 3 6.0 2.0 0 6
r 0.894963 6 7 ack 40 ------- 2 5.0 1.0 0 7
+ 0.894963 7 0 ack 40 ------- 2 5.0 1.0 0 7
- 0.894963 7 0 ack 40 ------- 2 5.0 1.0 0 7
r 0.931817 0 1 ack 40 ------- 3 6.0 2.0 0 6
+ 0.931817 1 2 ack 40 ------- 3 6.0 2.0 0 6
- 0.931817 1 2 ack 40 ------- 3 6.0 2.0 0 6
r 1.05736 2 1 ack 40 ------- 1 4.0 0.0 0 4
+ 1.05736 1 0 ack 40 ------- 1 4.0 0.0 0 4
- 1.05736 1 0 ack 40 ------- 1 4.0 0.0 0 4
r 1.05736 1 2 ack 40 ------- 4 7.0 3.0 0 5
+ 1.05736 2 3 ack 40 ------- 4 7.0 3.0 0 5
- 1.05736 2 3 ack 40 ------- 4 7.0 3.0 0 5
r 1.096563 7 0 ack 40 ------- 2 5.0 1.0 0 7
+ 1.096563 0 1 ack 40 ------- 2 5.0 1.0 0 7
- 1.096563 0 1 ack 40 ------- 2 5.0 1.0 0 7
r 1.10768 1 0 ack 40 ------- 1 4.0 0.0 0 4
+ 1.10768 0 1 tcp 1540 ------- 1 0.0 4.0 1 8
- 1.10768 0 1 tcp 1540 ------- 1 0.0 4.0 1 8
+ 1.10768 0 1 tcp 1540 ------- 1 0.0 4.0 2 9
r 1.10768 2 3 ack 40 ------- 4 7.0 3.0 0 5
+ 1.10768 3 2 tcp 1040 ------- 4 3.0 7.0 1 10
- 1.10768 3 2 tcp 1040 ------- 4 3.0 7.0 1 10
+ 1.10768 3 2 tcp 1040 ------- 4 3.0 7.0 2 11
- 1.116 3 2 tcp 1040 ------- 4 3.0 7.0 2 11
- 1.12 0 1 tcp 1540 ------- 1 0.0 4.0 2 9
r 1.133417 1 2 ack 40 ------- 3 6.0 2.0 0 6
+ 1.133417 2 3 exp 1040 ------- 3 2.0 6.0 0 12
- 1.133417 2 3 exp 1040 ------- 3 2.0 6.0 0 12
+ 1.133417 2 3 exp 1040 ------- 3 2.0 6.0 0 13
- 1.141737 2 3 exp 1040 ------- 3 2.0 6.0 0 13
r 1.146883 0 1 ack 40 ------- 2 5.0 1.0 0 7
+ 1.146883 1 2 exp 1040 ------- 2 1.0 5.0 0 14
- 1.146883 1 2 exp 1040 ------- 2 1.0 5.0 0 14
+ 1.146883 1 2 exp 1040 ------- 2 1.0 5.0 0 15
r 1.166 3 2 tcp 1040 ------- 4 3.0 7.0 1 10
+ 1.166 2 1 tcp 1040 ------- 4 3.0 7.0 1 10
- 1.166 2 1 tcp 1040 ------- 4 3.0 7.0 1 10
r 1.17 0 1 tcp 1540 ------- 1 0.0 4.0 1 8
+ 1.17 1 2 tcp 1540 ------- 1 0.0 4.0 1 8
r 1.17432 3 2 tcp 1040 ------- 4 3.0 7.0 2 11
+ 1.17432 2 1 tcp 1040 ------- 4 3.0 7.0 2 11
r 1.18232 0 1 tcp 1540 ------- 1 0.0 4.0 2 9
+ 1.18232 1 2 tcp 1540 ------- 1 0.0 4.0 2 9
- 1.188483 1 2 exp 1040 ------- 2 1.0 5.0 0 15
r 1.191737 2 3 exp 1040 ------- 3 2.0 6.0 0 12
+ 1.191737 3 4 exp 1040 ------- 3 2.0 6.0 0 12
- 1.191737 3 4 exp 1040 ------- 3 2.0 6.0 0 12
r 1.200057 2 3 exp 1040 ------- 3 2.0 6.0 0 13
+ 1.200057 3 4 exp 1040 ------- 3 2.0 6.0 0 13
- 1.2076 2 1 tcp 1040 ------- 4 3.0 7.0 2 11
- 1.230083 1 2 tcp 1540 ------- 1 0.0 4.0 1 8
- 1.233337 3 4 exp 1040 ------- 3 2.0 6.0 0 13
- 1.291683 1 2 tcp 1540 ------- 1 0.0 4.0 2 9
r 1.388483 1 2 exp 1040 ------- 2 1.0 5.0 0 14
+ 1.388483 2 3 exp 1040 ------- 2 1.0 5.0 0 14
- 1.388483 2 3 exp 1040 ------- 2 1.0 5.0 0 14
r 1.4076 2 1 tcp 1040 ------- 4 3.0 7.0 1 10
+ 1.4076 1 0 tcp 1040 ------- 4 3.0 7.0 1 10
- 1.4076 1 0 tcp 1040 ------- 4 3.0 7.0 1 10
r 1.430083 1 2 exp 1040 ------- 2 1.0 5.0 0 15
+ 1.430083 2 3 exp 1040 ------- 2 1.0 5.0 0 15
- 1.430083 2 3 exp 1040 ------- 2 1.0 5.0 0 15
r 1.433337 3 4 exp 1040 ------- 3 2.0 6.0 0 12
+ 1.433337 4 5 exp 1040 ------- 3 2.0 6.0 0 12
- 1.433337 4 5 exp 1040 ------- 3 2.0 6.0 0 12
r 1.446803 2 3 exp 1040 ------- 2 1.0 5.0 0 14
+ 1.446803 3 4 exp 1040 ------- 2 1.0 5.0 0 14
- 1.446803 3 4 exp 1040 ------- 2 1.0 5.0 0 14
r 1.4492 2 1 tcp 1040 ------- 4 3.0 7.0 2 11
+ 1.4492 1 0 tcp 1040 ------- 4 3.0 7.0 2 11
- 1.4492 1 0 tcp 1040 ------- 4 3.0 7.0 2 11
r 1.46592 1 0 tcp 1040 ------- 4 3.0 7.0 1 10
+ 1.46592 0 7 tcp 1040 ------- 4 3.0 7.0 1 10
- 1.46592 0 7 tcp 1040 ------- 4 3.0 7.0 1 10
r 1.474937 3 4 exp 1040 ------- 3 2.0 6.0 0 13
+ 1.474937 4 5 exp 1040 ------- 3 2.0 6.0 0 13
- 1.474937 4 5 exp 1040 ------- 3 2.0 6.0 0 13
r 1.488403 2 3 exp 1040 ------- 2 1.0 5.0 0 15
+ 1.488403 3 4 exp 1040 ------- 2 1.0 5.0 0 15
- 1.488403 3 4 exp 1040 ------- 2 1.0 5.0 0 15
r 1.491657 4 5 exp 1040 ------- 3 2.0 6.0 0 12
+ 1.491657 5 6 exp 1040 ------- 3 2.0 6.0 0 12
- 1.491657 5 6 exp 1040 ------- 3 2.0 6.0 0 12
r 1.491683 1 2 tcp 1540 ------- 1 0.0 4.0 1 8
+ 1.491683 2 3 tcp 1540 ------- 1 0.0 4.0 1 8
- 1.491683 2 3 tcp 1540 ------- 1 0.0 4.0 1 8
r 1.50752 1 0 tcp 1040 ------- 4 3.0 7.0 2 11
+ 1.50752 0 7 tcp 1040 ------- 4 3.0 7.0 2 11
- 1.50752 0 7 tcp 1040 ------- 4 3.0 7.0 2 11
r 1.533257 4 5 exp 1040 ------- 3 2.0 6.0 0 13
+ 1.533257 5 6 exp 1040 ------- 3 2.0 6.0 0 13
- 1.533257 5 6 exp 1040 ------- 3 2.0 6.0 0 13
r 1.553283 1 2 tcp 1540 ------- 1 0.0 4.0 2 9
+ 1.553283 2 3 tcp 1540 ------- 1 0.0 4.0 2 9
- 1.553283 2 3 tcp 1540 ------- 1 0.0 4.0 2 9
r 1.554003 2 3 tcp 1540 ------- 1 0.0 4.0 1 8
+ 1.554003 3 4 tcp 1540 ------- 1 0.0 4.0 1 8
- 1.554003 3 4 tcp 1540 ------- 1 0.0 4.0 1 8
r 1.615603 2 3 tcp 1540 ------- 1 0.0 4.0 2 9
+ 1.615603 3 4 tcp 1540 ------- 1 0.0 4.0 2 9
- 1.615603 3 4 tcp 1540 ------- 1 0.0 4.0 2 9
r 1.688403 3 4 exp 1040 ------- 2 1.0 5.0 0 14
+ 1.688403 4 5 exp 1040 ------- 2 1.0 5.0 0 14
- 1.688403 4 5 exp 1040 ------- 2 1.0 5.0 0 14
r 1.70752 0 7 tcp 1040 ------- 4 3.0 7.0 1 10
+ 1.70752 7 0 ack 40 ------- 4 7.0 3.0 1 16
- 1.70752 7 0 ack 40 ------- 4 7.0 3.0 1 16
r 1.730003 3 4 exp 1040 ------- 2 1.0 5.0 0 15
+ 1.730003 4 5 exp 1040 ------- 2 1.0 5.0 0 15
- 1.730003 4 5 exp 1040 ------- 2 1.0 5.0 0 15
r 1.733257 5 6 exp 1040 ------- 3 2.0 6.0 0 12
+ 1.733257 6 7 ack 40 ------- 3 6.0 2.0 1 17
- 1.733257 6 7 ack 40 ------- 3 6.0 2.0 1 17
r 1.746723 4 5 exp 1040 ------- 2 1.0 5.0 0 14
+ 1.746723 5 6 ack 40 ------- 2 5.0 1.0 1 18
- 1.746723 5 6 ack 40 ------- 2 5.0 1.0 1 18
r 1.74912 0 7 tcp 1040 ------- 4 3.0 7.0 2 11
+ 1.74912 7 0 ack 40 ------- 4 7.0 3.0 2 19
- 1.74912 7 0 ack 40 ------- 4 7.0 3.0 2 19
r 1.774857 5 6 exp 1040 ------- 3 2.0 6.0 0 13
+ 1.774857 6 7 ack 40 ------- 3 6.0 2.0 2 20
- 1.774857 6 7 ack 40 ------- 3 6.0 2.0 2 20
r 1.783577 6 7 ack 40 ------- 3 6.0 2.0 1 17
+ 1.783577 7 0 ack 40 ------- 3 6.0 2.0 1 17
- 1.783577 7 0 ack 40 ------- 3 6.0 2.0 1 17
r 1.788323 4 5 exp 1040 ------- 2 1.0 5.0 0 15
+ 1.788323 5 6 ack 40 ------- 2 5.0 1.0 2 21
- 1.788323 5 6 ack 40 ------- 2 5.0 1.0 2 21
r 1.815603 3 4 tcp 1540 ------- 1 0.0 4.0 1 8
+ 1.815603 4 3 ack 40 ------- 1 4.0 0.0 1 22
- 1.815603 4 3 ack 40 ------- 1 4.0 0.0 1 22
r 1.825177 6 7 ack 40 ------- 3 6.0 2.0 2 20
+ 1.825177 7 0 ack 40 ------- 3 6.0 2.0 2 20
- 1.825177 7 0 ack 40 ------- 3 6.0 2.0 2 20
r 1.877203 3 4 tcp 1540 ------- 1 0.0 4.0 2 9
+ 1.877203 4 3 ack 40 ------- 1 4.0 0.0 2 23
- 1.877203 4 3 ack 40 ------- 1 4.0 0.0 2 23
r 1.90912 7 0 ack 40 ------- 4 7.0 3.0 1 16
+ 1.90912 0 1 ack 40 ------- 4 7.0 3.0 1 16
- 1.90912 0 1 ack 40 ------- 4 7.0 3.0 1 16
r 1.948323 5 6 ack 40 ------- 2 5.0 1.0 1 18
+ 1.948323 6 7 ack 40 ------- 2 5.0 1.0 1 18
- 1.948323 6 7 ack 40 ------- 2 5.0 1.0 1 18
r 1.95072 7 0 ack 40 ------- 4 7.0 3.0 2 19
+ 1.95072 0 1 ack 40 ------- 4 7.0 3.0 2 19
- 1.95072 0 1 ack 40 ------- 4 7.0 3.0 2 19
r 1.95944 0 1 ack 40 ------- 4 7.0 3.0 1 16
+ 1.95944 1 2 ack 40 ------- 4 7.0 3.0 1 16
- 1.95944 1 2 ack 40 ------- 4 7.0 3.0 1 16
r 1.985177 7 0 ack 40 ------- 3 6.0 2.0 1 17
+ 1.985177 0 1 ack 40 ------- 3 6.0 2.0 1 17
- 1.985177 0 1 ack 40 ------- 3 6.0 2.0 1 17
r 1.989923 5 6 ack 40 ------- 2 5.0 1.0 2 21
+ 1.989923 6 7 ack 40 ------- 2 5.0 1.0 2 21
- 1.989923 6 7 ack 40 ------- 2 5.0 1.0 2 21
r 1.998643 6 7 ack 40 ------- 2 5.0 1.0 1 18
+ 1.998643 7 0 ack 40 ------- 2 5.0 1.0 1 18
- 1.998643 7 0 ack 40 ------- 2 5.0 1.0 1 18
r 2.00104 0 1 ack 40 ------- 4 7.0 3.0 2 19
+ 2.00104 1 2 ack 40 ------- 4 7.0 3.0 2 19
- 2.00104 1 2 ack 40 ------- 4 7.0 3.0 2 19
r 2.017203 4 3 ack 40 ------- 1 4.0 0.0 1 22
+ 2.017203 3 2 ack 40 ------- 1 4.0 0.0 1 22
- 2.017203 3 2 ack 40 ------- 1 4.0 0.0 1 22
r 2.026777 7 0 ack 40 ------- 3 6.0 2.0 2 20
+ 2.026777 0 1 ack 40 ------- 3 6.0 2.0 2 20
- 2.026777 0 1 ack 40 ------- 3 6.0 2.0 2 20
r 2.035497 0 1 ack 40 ------- 3 6.0 2.0 1 17
+ 2.035497 1 2 ack 40 ------- 3 6.0 2.0 1 17
- 2.035497 1 2 ack 40 ------- 3 6.0 2.0 1 17
r 2.040243 6 7 ack 40 ------- 2 5.0 1.0 2 21
+ 2.040243 7 0 ack 40 ------- 2 5.0 1.0 2 21
- 2.040243 7 0 ack 40 ------- 2 5.0 1.0 2 21
r 2.067523 3 2 ack 40 ------- 1 4.0 0.0 1 22
+ 2.067523 2 1 ack 40 ------- 1 4.0 0.0 1 22
- 2.067523 2 1 ack 40 ------- 1 4.0 0.0 1 22
r 2.077097 0 1 ack 40 ------- 3 6.0 2.0 2 20
+ 2.077097 1 2 ack 40 ------- 3 6.0 2.0 2 20
- 2.077097 1 2 ack 40 ------- 3 6.0 2.0 2 20
r 2.078803 4 3 ack 40 ------- 1 4.0 0.0 2 23
+ 2.078803 3 2 ack 40 ------- 1 4.0 0.0 2 23
- 2.078803 3 2 ack 40 ------- 1 4.0 0.0 2 23
r 2.129123 3 2 ack 40 ------- 1 4.0 0.0 2 23
+ 2.129123 2 1 ack 40 ------- 1 4.0 0.0 2 23
- 2.129123 2 1 ack 40 ------- 1 4.0 0.0 2 23
r 2.16104 1 2 ack 40 ------- 4 7.0 3.0 1 16
+ 2.16104 2 3 ack 40 ------- 4 7.0 3.0 1 16
- 2.16104 2 3 ack 40 ------- 4 7.0 3.0 1 16
r 2.200243 7 0 ack 40 ------- 2 5.0 1.0 1 18
+ 2.200243 0 1 ack 40 ------- 2 5.0 1.0 1 18
- 2.200243 0 1 ack 40 ------- 2 5.0 1.0 1 18
r 2.20264 1 2 ack 40 ------- 4 7.0 3.0 2 19
+ 2.20264 2 3 ack 40 ------- 4 7.0 3.0 2 19
- 2.20264 2 3 ack 40 ------- 4 7.0 3.0 2 19
r 2.21136 2 3 ack 40 ------- 4 7.0 3.0 1 16
+ 2.21136 3 2 tcp 1040 ------- 4 3.0 7.0 3 24
- 2.21136 3 2 tcp 1040 ------- 4 3.0 7.0 3 24
+ 2.21136 3 2 tcp 1040 ------- 4 3.0 7.0 4 25
- 2.21968 3 2 tcp 1040 ------- 4 3.0 7.0 4 25
r 2.237097 1 2 ack 40 ------- 3 6.0 2.0 1 17
+ 2.237097 2 3 exp 1040 ------- 3 2.0 6.0 0 26
- 2.237097 2 3 exp 1040 ------- 3 2.0 6.0 0 26
+ 2.237097 2 3 exp 1040 ------- 3 2.0 6.0 0 27
r 2.241843 7 0 ack 40 ------- 2 5.0 1.0 2 21
+ 2.241843 0 1 ack 40 ------- 2 5.0 1.0 2 21
- 2.241843 0 1 ack 40 ------- 2 5.0 1.0 2 21
- 2.245417 2 3 exp 1040 ------- 3 2.0 6.0 0 27
r 2.250563 0 1 ack 40 ------- 2 5.0 1.0 1 18
+ 2.250563 1 2 exp 1040 ------- 2 1.0 5.0 0 28
- 2.250563 1 2 exp 1040 ------- 2 1.0 5.0 0 28
+ 2.250563 1 2 exp 1040 ------- 2 1.0 5.0 0 29
r 2.25296 2 3 ack 40 ------- 4 7.0 3.0 2 19
+ 2.25296 3 2 tcp 1040 ------- 4 3.0 7.0 5 30
- 2.25296 3 2 tcp 1040 ------- 4 3.0 7.0 5 30
+ 2.25296 3 2 tcp 1040 ------- 4 3.0 7.0 6 31
- 2.26128 3 2 tcp 1040 ------- 4 3.0 7.0 6 31
r 2.269123 2 1 ack 40 ------- 1 4.0 0.0 1 22
+ 2.269123 1 0 ack 40 ------- 1 4.0 0.0 1 22
- 2.269123 1 0 ack 40 ------- 1 4.0 0.0 1 22
r 2.26968 3 2 tcp 1040 ------- 4 3.0 7.0 3 24
+ 2.26968 2 1 tcp 1040 ------- 4 3.0 7.0 3 24
- 2.26968 2 1 tcp 1040 ------- 4 3.0 7.0 3 24
r 2.278 3 2 tcp 1040 ------- 4 3.0 7.0 4 25
+ 2.278 2 1 tcp 1040 ------- 4 3.0 7.0 4 25
r 2.278697 1 2 ack 40 ------- 3 6.0 2.0 2 20
+ 2.278697 2 3 exp 1040 ------- 3 2.0 6.0 0 32
- 2.278697 2 3 exp 1040 ------- 3 2.0 6.0 0 32
+ 2.278697 2 3 exp 1040 ------- 3 2.0 6.0 0 33
- 2.287017 2 3 exp 1040 ------- 3 2.0 6.0 0 33
- 2.292163 1 2 exp 1040 ------- 2 1.0 5.0 0 29
r 2.292163 0 1 ack 40 ------- 2 5.0 1.0 2 21
+ 2.292163 1 2 exp 1040 ------- 2 1.0 5.0 0 34
+ 2.292163 1 2 exp 1040 ------- 2 1.0 5.0 0 35
r 2.295417 2 3 exp 1040 ------- 3 2.0 6.0 0 26
+ 2.295417 3 4 exp 1040 ------- 3 2.0 6.0 0 26
- 2.295417 3 4 exp 1040 ------- 3 2.0 6.0 0 26
r 2.303737 2 3 exp 1040 ------- 3 2.0 6.0 0 27
+ 2.303737 3 4 exp 1040 ------- 3 2.0 6.0 0 27
- 2.31128 2 1 tcp 1040 ------- 4 3.0 7.0 4 25
r 2.31128 3 2 tcp 1040 ------- 4 3.0 7.0 5 30
+ 2.31128 2 1 tcp 1040 ------- 4 3.0 7.0 5 30
r 2.319443 1 0 ack 40 ------- 1 4.0 0.0 1 22
+ 2.319443 0 1 tcp 1540 ------- 1 0.0 4.0 3 36
- 2.319443 0 1 tcp 1540 ------- 1 0.0 4.0 3 36
+ 2.319443 0 1 tcp 1540 ------- 1 0.0 4.0 4 37
r 2.3196 3 2 tcp 1040 ------- 4 3.0 7.0 6 31
+ 2.3196 2 1 tcp 1040 ------- 4 3.0 7.0 6 31
r 2.330723 2 1 ack 40 ------- 1 4.0 0.0 2 23
+ 2.330723 1 0 ack 40 ------- 1 4.0 0.0 2 23
- 2.330723 1 0 ack 40 ------- 1 4.0 0.0 2 23
- 2.331763 0 1 tcp 1540 ------- 1 0.0 4.0 4 37
- 2.333763 1 2 exp 1040 ------- 2 1.0 5.0 0 34
- 2.337017 3 4 exp 1040 ------- 3 2.0 6.0 0 27
r 2.337017 2 3 exp 1040 ------- 3 2.0 6.0 0 32
+ 2.337017 3 4 exp 1040 ------- 3 2.0 6.0 0 32
r 2.345337 2 3 exp 1040 ------- 3 2.0 6.0 0 33
+ 2.345337 3 4 exp 1040 ------- 3 2.0 6.0 0 33
- 2.35288 2 1 tcp 1040 ------- 4 3.0 7.0 5 30
- 2.375363 1 2 exp 1040 ------- 2 1.0 5.0 0 35
- 2.378617 3 4 exp 1040 ------- 3 2.0 6.0 0 32
r 2.381043 1 0 ack 40 ------- 1 4.0 0.0 2 23
+ 2.381043 0 1 tcp 1540 ------- 1 0.0 4.0 5 38
- 2.381043 0 1 tcp 1540 ------- 1 0.0 4.0 5 38
+ 2.381043 0 1 tcp 1540 ------- 1 0.0 4.0 6 39
r 2.381763 0 1 tcp 1540 ------- 1 0.0 4.0 3 36
+ 2.381763 1 2 tcp 1540 ------- 1 0.0 4.0 3 36
- 2.393363 0 1 tcp 1540 ------- 1 0.0 4.0 6 39
r 2.394083 0 1 tcp 1540 ------- 1 0.0 4.0 4 37
+ 2.394083 1 2 tcp 1540 ------- 1 0.0 4.0 4 37
- 2.39448 2 1 tcp 1040 ------- 4 3.0 7.0 6 31
- 2.416963 1 2 tcp 1540 ------- 1 0.0 4.0 3 36
- 2.420217 3 4 exp 1040 ------- 3 2.0 6.0 0 33
r 2.443363 0 1 tcp 1540 ------- 1 0.0 4.0 5 38
+ 2.443363 1 2 tcp 1540 ------- 1 0.0 4.0 5 38
r 2.455683 0 1 tcp 1540 ------- 1 0.0 4.0 6 39
+ 2.455683 1 2 tcp 1540 ------- 1 0.0 4.0 6 39
- 2.478563 1 2 tcp 1540 ------- 1 0.0 4.0 4 37
r 2.492163 1 2 exp 1040 ------- 2 1.0 5.0 0 28
+ 2.492163 2 3 exp 1040 ------- 2 1.0 5.0 0 28
- 2.492163 2 3 exp 1040 ------- 2 1.0 5.0 0 28
r 2.51128 2 1 tcp 1040 ------- 4 3.0 7.0 3 24
+ 2.51128 1 0 tcp 1040 ------- 4 3.0 7.0 3 24
- 2.51128 1 0 tcp 1040 ------- 4 3.0 7.0 3 24
r 2.533763 1 2 exp 1040 ------- 2 1.0 5.0 0 29
+ 2.533763 2 3 exp 1040 ------- 2 1.0 5.0 0 29
- 2.533763 2 3 exp 1040 ------- 2 1.0 5.0 0 29
r 2.537017 3 4 exp 1040 ------- 3 2.0 6.0 0 26
+ 2.537017 4 5 exp 1040 ------- 3 2.0 6.0 0 26
- 2.537017 4 5 exp 1040 ------- 3 2.0 6.0 0 26
- 2.540163 1 2 tcp 1540 ------- 1 0.0 4.0 5 38
r 2.550483 2 3 exp 1040 ------- 2 1.0 5.0 0 28
+ 2.550483 3 4 exp 1040 ------- 2 1.0 5.0 0 28
- 2.550483 3 4 exp 1040 ------- 2 1.0 5.0 0 28
r 2.55288 2 1 tcp 1040 ------- 4 3.0 7.0 4 25
+ 2.55288 1 0 tcp 1040 ------- 4 3.0 7.0 4 25
- 2.55288 1 0 tcp 1040 ------- 4 3.0 7.0 4 25
r 2.5696 1 0 tcp 1040 ------- 4 3.0 7.0 3 24
+ 2.5696 0 7 tcp 1040 ------- 4 3.0 7.0 3 24
- 2.5696 0 7 tcp 1040 ------- 4 3.0 7.0 3 24
r 2.575363 1 2 exp 1040 ------- 2 1.0 5.0 0 34
+ 2.575363 2 3 exp 1040 ------- 2 1.0 5.0 0 34
- 2.575363 2 3 exp 1040 ------- 2 1.0 5.0 0 34
r 2.578617 3 4 exp 1040 ------- 3 2.0 6.0 0 27
+ 2.578617 4 5 exp 1040 ------- 3 2.0 6.0 0 27
- 2.578617 4 5 exp 1040 ------- 3 2.0 6.0 0 27
r 2.592083 2 3 exp 1040 ------- 2 1.0 5.0 0 29
+ 2.592083 3 4 exp 1040 ------- 2 1.0 5.0 0 29
- 2.592083 3 4 exp 1040 ------- 2 1.0 5.0 0 29
r 2.59448 2 1 tcp 1040 ------- 4 3.0 7.0 5 30
+ 2.59448 1 0 tcp 1040 ------- 4 3.0 7.0 5 30
- 2.59448 1 0 tcp 1040 ------- 4 3.0 7.0 5 30
r 2.595337 4 5 exp 1040 ------- 3 2.0 6.0 0 26
+ 2.595337 5 6 exp 1040 ------- 3 2.0 6.0 0 26
- 2.595337 5 6 exp 1040 ------- 3 2.0 6.0 0 26
- 2.601763 1 2 tcp 1540 ------- 1 0.0 4.0 6 39
r 2.6112 1 0 tcp 1040 ------- 4 3.0 7.0 4 25
+ 2.6112 0 7 tcp 1040 ------- 4 3.0 7.0 4 25
- 2.6112 0 7 tcp 1040 ------- 4 3.0 7.0 4 25
r 2.616963 1 2 exp 1040 ------- 2 1.0 5.0 0 35
+ 2.616963 2 3 exp 1040 ------- 2 1.0 5.0 0 35
- 2.616963 2 3 exp 1040 ------- 2 1.0 5.0 0 35
r 2.620217 3 4 exp 1040 ------- 3 2.0 6.0 0 32
+ 2.620217 4 5 exp 1040 ------- 3 2.0 6.0 0 32
- 2.620217 4 5 exp 1040 ------- 3 2.0 6.0 0 32
r 2.633683 2 3 exp 1040 ------- 2 1.0 5.0 0 34
+ 2.633683 3 4 exp 1040 ------- 2 1.0 5.0 0 34
- 2.633683 3 4 exp 1040 ------- 2 1.0 5.0 0 34
r 2.63608 2 1 tcp 1040 ------- 4 3.0 7.0 6 31
+ 2.63608 1 0 tcp 1040 ------- 4 3.0 7.0 6 31
- 2.63608 1 0 tcp 1040 ------- 4 3.0 7.0 6 31
r 2.636937 4 5 exp 1040 ------- 3 2.0 6.0 0 27
+ 2.636937 5 6 exp 1040 ------- 3 2.0 6.0 0 27
- 2.636937 5 6 exp 1040 ------- 3 2.0 6.0 0 27
r 2.6528 1 0 tcp 1040 ------- 4 3.0 7.0 5 30
+ 2.6528 0 7 tcp 1040 ------- 4 3.0 7.0 5 30
- 2.6528 0 7 tcp 1040 ------- 4 3.0 7.0 5 30
r 2.661817 3 4 exp 1040 ------- 3 2.0 6.0 0 33
+ 2.661817 4 5 exp 1040 ------- 3 2.0 6.0 0 33
- 2.661817 4 5 exp 1040 ------- 3 2.0 6.0 0 33
r 2.675283 2 3 exp 1040 ------- 2 1.0 5.0 0 35
+ 2.675283 3 4 exp 1040 ------- 2 1.0 5.0 0 35
- 2.675283 3 4 exp 1040 ------- 2 1.0 5.0 0 35
r 2.678537 4 5 exp 1040 ------- 3 2.0 6.0 0 32
+ 2.678537 5 6 exp 1040 ------- 3 2.0 6.0 0 32
- 2.678537 5 6 exp 1040 ------- 3 2.0 6.0 0 32
r 2.678563 1 2 tcp 1540 ------- 1 0.0 4.0 3 36
+ 2.678563 2 3 tcp 1540 ------- 1 0.0 4.0 3 36
- 2.678563 2 3 tcp 1540 ------- 1 0.0 4.0 3 36
r 2.6944 1 0 tcp 1040 ------- 4 3.0 7.0 6 31
+ 2.6944 0 7 tcp 1040 ------- 4 3.0 7.0 6 31
- 2.6944 0 7 tcp 1040 ------- 4 3.0 7.0 6 31
r 2.720137 4 5 exp 1040 ------- 3 2.0 6.0 0 33
+ 2.720137 5 6 exp 1040 ------- 3 2.0 6.0 0 33
- 2.720137 5 6 exp 1040 ------- 3 2.0 6.0 0 33
r 2.740163 1 2 tcp 1540 ------- 1 0.0 4.0 4 37
+ 2.740163 2 3 tcp 1540 ------- 1 0.0 4.0 4 37
- 2.740163 2 3 tcp 1540 ------- 1 0.0 4.0 4 37
r 2.740883 2 3 tcp 1540 ------- 1 0.0 4.0 3 36
+ 2.740883 3 4 tcp 1540 ------- 1 0.0 4.0 3 36
- 2.740883 3 4 tcp 1540 ------- 1 0.0 4.0 3 36
r 2.792083 3 4 exp 1040 ------- 2 1.0 5.0 0 28
+ 2.792083 4 5 exp 1040 ------- 2 1.0 5.0 0 28
- 2.792083 4 5 exp 1040 ------- 2 1.0 5.0 0 28
r 2.801763 1 2 tcp 1540 ------- 1 0.0 4.0 5 38
+ 2.801763 2 3 tcp 1540 ------- 1 0.0 4.0 5 38
- 2.801763 2 3 tcp 1540 ------- 1 0.0 4.0 5 38
r 2.802483 2 3 tcp 1540 ------- 1 0.0 4.0 4 37
+ 2.802483 3 4 tcp 1540 ------- 1 0.0 4.0 4 37
- 2.802483 3 4 tcp 1540 ------- 1 0.0 4.0 4 37
r 2.8112 0 7 tcp 1040 ------- 4 3.0 7.0 3 24
+ 2.8112 7 0 ack 40 ------- 4 7.0 3.0 3 40
- 2.8112 7 0 ack 40 ------- 4 7.0 3.0 3 40
r 2.833683 3 4 exp 1040 ------- 2 1.0 5.0 0 29
+ 2.833683 4 5 exp 1040 ------- 2 1.0 5.0 0 29
- 2.833683 4 5 exp 1040 ------- 2 1.0 5.0 0 29
r 2.836937 5 6 exp 1040 ------- 3 2.0 6.0 0 26
+ 2.836937 6 7 ack 40 ------- 3 6.0 2.0 3 41
- 2.836937 6 7 ack 40 ------- 3 6.0 2.0 3 41
r 2.850403 4 5 exp 1040 ------- 2 1.0 5.0 0 28
+ 2.850403 5 6 ack 40 ------- 2 5.0 1.0 3 42
- 2.850403 5 6 ack 40 ------- 2 5.0 1.0 3 42
r 2.8528 0 7 tcp 1040 ------- 4 3.0 7.0 4 25
+ 2.8528 7 0 ack 40 ------- 4 7.0 3.0 4 43
- 2.8528 7 0 ack 40 ------- 4 7.0 3.0 4 43
r 2.863363 1 2 tcp 1540 ------- 1 0.0 4.0 6 39
+ 2.863363 2 3 tcp 1540 ------- 1 0.0 4.0 6 39
- 2.863363 2 3 tcp 1540 ------- 1 0.0 4.0 6 39
r 2.864083 2 3 tcp 1540 ------- 1 0.0 4.0 5 38
+ 2.864083 3 4 tcp 1540 ------- 1 0.0 4.0 5 38
- 2.864083 3 4 tcp 1540 ------- 1 0.0 4.0 5 38
r 2.875283 3 4 exp 1040 ------- 2 1.0 5.0 0 34
+ 2.875283 4 5 exp 1040 ------- 2 1.0 5.0 0 34
- 2.875283 4 5 exp 1040 ------- 2 1.0 5.0 0 34
r 2.878537 5 6 exp 1040 ------- 3 2.0 6.0 0 27
+ 2.878537 6 7 ack 40 ------- 3 6.0 2.0 4 44
- 2.878537 6 7 ack 40 ------- 3 6.0 2.0 4 44
r 2.887257 6 7 ack 40 ------- 3 6.0 2.0 3 41
+ 2.887257 7 0 ack 40 ------- 3 6.0 2.0 3 41
- 2.887257 7 0 ack 40 ------- 3 6.0 2.0 3 41
r 2.892003 4 5 exp 1040 ------- 2 1.0 5.0 0 29
+ 2.892003 5 6 ack 40 ------- 2 5.0 1.0 4 45
- 2.892003 5 6 ack 40 ------- 2 5.0 1.0 4 45
r 2.8944 0 7 tcp 1040 ------- 4 3.0 7.0 5 30
+ 2.8944 7 0 ack 40 ------- 4 7.0 3.0 5 46
- 2.8944 7 0 ack 40 ------- 4 7.0 3.0 5 46
r 2.916883 3 4 exp 1040 ------- 2 1.0 5.0 0 35
+ 2.916883 4 5 exp 1040 ------- 2 1.0 5.0 0 35
- 2.916883 4 5 exp 1040 ------- 2 1.0 5.0 0 35
r 2.920137 5 6 exp 1040 ------- 3 2.0 6.0 0 32
+ 2.920137 6 7 ack 40 ------- 3 6.0 2.0 5 47
- 2.920137 6 7 ack 40 ------- 3 6.0 2.0 5 47
r 2.925683 2 3 tcp 1540 ------- 1 0.0 4.0 6 39
+ 2.925683 3 4 tcp 1540 ------- 1 0.0 4.0 6 39
- 2.925683 3 4 tcp 1540 ------- 1 0.0 4.0 6 39
r 2.928857 6 7 ack 40 ------- 3 6.0 2.0 4 44
+ 2.928857 7 0 ack 40 ------- 3 6.0 2.0 4 44
- 2.928857 7 0 ack 40 ------- 3 6.0 2.0 4 44
r 2.933603 4 5 exp 1040 ------- 2 1.0 5.0 0 34
+ 2.933603 5 6 ack 40 ------- 2 5.0 1.0 5 48
- 2.933603 5 6 ack 40 ------- 2 5.0 1.0 5 48
r 2.936 0 7 tcp 1040 ------- 4 3.0 7.0 6 31
+ 2.936 7 0 ack 40 ------- 4 7.0 3.0 6 49
- 2.936 7 0 ack 40 ------- 4 7.0 3.0 6 49
r 2.961737 5 6 exp 1040 ------- 3 2.0 6.0 0 33
+ 2.961737 6 7 ack 40 ------- 3 6.0 2.0 6 50
- 2.961737 6 7 ack 40 ------- 3 6.0 2.0 6 50
r 2.970457 6 7 ack 40 ------- 3 6.0 2.0 5 47
+ 2.970457 7 0 ack 40 ------- 3 6.0 2.0 5 47
- 2.970457 7 0 ack 40 ------- 3 6.0 2.0 5 47
r 2.975203 4 5 exp 1040 ------- 2 1.0 5.0 0 35
+ 2.975203 5 6 ack 40 ------- 2 5.0 1.0 6 51
- 2.975203 5 6 ack 40 ------- 2 5.0 1.0 6 51
r 3.002483 3 4 tcp 1540 ------- 1 0.0 4.0 3 36
+ 3.002483 4 3 ack 40 ------- 1 4.0 0.0 3 52
- 3.002483 4 3 ack 40 ------- 1 4.0 0.0 3 52
r 3.012057 6 7 ack 40 ------- 3 6.0 2.0 6 50
+ 3.012057 7 0 ack 40 ------- 3 6.0 2.0 6 50
- 3.012057 7 0 ack 40 ------- 3 6.0 2.0 6 50
r 3.0128 7 0 ack 40 ------- 4 7.0 3.0 3 40
+ 3.0128 0 1 ack 40 ------- 4 7.0 3.0 3 40
- 3.0128 0 1 ack 40 ------- 4 7.0 3.0 3 40
r 3.052003 5 6 ack 40 ------- 2 5.0 1.0 3 42
+ 3.052003 6 7 ack 40 ------- 2 5.0 1.0 3 42
- 3.052003 6 7 ack 40 ------- 2 5.0 1.0 3 42
r 3.0544 7 0 ack 40 ------- 4 7.0 3.0 4 43
+ 3.0544 0 1 ack 40 ------- 4 7.0 3.0 4 43
- 3.0544 0 1 ack 40 ------- 4 7.0 3.0 4 43
r 3.06312 0 1 ack 40 ------- 4 7.0 3.0 3 40
+ 3.06312 1 2 ack 40 ------- 4 7.0 3.0 3 40
- 3.06312 1 2 ack 40 ------- 4 7.0 3.0 3 40
r 3.064083 3 4 tcp 1540 ------- 1 0.0 4.0 4 37
+ 3.064083 4 3 ack 40 ------- 1 4.0 0.0 4 53
- 3.064083 4 3 ack 40 ------- 1 4.0 0.0 4 53
r 3.088857 7 0 ack 40 ------- 3 6.0 2.0 3 41
+ 3.088857 0 1 ack 40 ------- 3 6.0 2.0 3 41
- 3.088857 0 1 ack 40 ------- 3 6.0 2.0 3 41
r 3.093603 5 6 ack 40 ------- 2 5.0 1.0 4 45
+ 3.093603 6 7 ack 40 ------- 2 5.0 1.0 4 45
- 3.093603 6 7 ack 40 ------- 2 5.0 1.0 4 45
r 3.096 7 0 ack 40 ------- 4 7.0 3.0 5 46
+ 3.096 0 1 ack 40 ------- 4 7.0 3.0 5 46
- 3.096 0 1 ack 40 ------- 4 7.0 3.0 5 46
r 3.102323 6 7 ack 40 ------- 2 5.0 1.0 3 42
+ 3.102323 7 0 ack 40 ------- 2 5.0 1.0 3 42
- 3.102323 7 0 ack 40 ------- 2 5.0 1.0 3 42
r 3.10472 0 1 ack 40 ------- 4 7.0 3.0 4 43
+ 3.10472 1 2 ack 40 ------- 4 7.0 3.0 4 43
- 3.10472 1 2 ack 40 ------- 4 7.0 3.0 4 43
r 3.125683 3 4 tcp 1540 ------- 1 0.0 4.0 5 38
+ 3.125683 4 3 ack 40 ------- 1 4.0 0.0 5 54
- 3.125683 4 3 ack 40 ------- 1 4.0 0.0 5 54
r 3.130457 7 0 ack 40 ------- 3 6.0 2.0 4 44
+ 3.130457 0 1 ack 40 ------- 3 6.0 2.0 4 44
- 3.130457 0 1 ack 40 ------- 3 6.0 2.0 4 44
r 3.135203 5 6 ack 40 ------- 2 5.0 1.0 5 48
+ 3.135203 6 7 ack 40 ------- 2 5.0 1.0 5 48
- 3.135203 6 7 ack 40 ------- 2 5.0 1.0 5 48
r 3.1376 7 0 ack 40 ------- 4 7.0 3.0 6 49
+ 3.1376 0 1 ack 40 ------- 4 7.0 3.0 6 49
- 3.1376 0 1 ack 40 ------- 4 7.0 3.0 6 49
r 3.139177 0 1 ack 40 ------- 3 6.0 2.0 3 41
+ 3.139177 1 2 ack 40 ------- 3 6.0 2.0 3 41
- 3.139177 1 2 ack 40 ------- 3 6.0 2.0 3 41
r 3.143923 6 7 ack 40 ------- 2 5.0 1.0 4 45
+ 3.143923 7 0 ack 40 ------- 2 5.0 1.0 4 45
- 3.143923 7 0 ack 40 ------- 2 5.0 1.0 4 45
r 3.14632 0 1 ack 40 ------- 4 7.0 3.0 5 46
+ 3.14632 1 2 ack 40 ------- 4 7.0 3.0 5 46
- 3.14632 1 2 ack 40 ------- 4 7.0 3.0 5 46
r 3.172057 7 0 ack 40 ------- 3 6.0 2.0 5 47
+ 3.172057 0 1 ack 40 ------- 3 6.0 2.0 5 47
- 3.172057 0 1 ack 40 ------- 3 6.0 2.0 5 47
r 3.176803 5 6 ack 40 ------- 2 5.0 1.0 6 51
+ 3.176803 6 7 ack 40 ------- 2 5.0 1.0 6 51
- 3.176803 6 7 ack 40 ------- 2 5.0 1.0 6 51
r 3.180777 0 1 ack 40 ------- 3 6.0 2.0 4 44
+ 3.180777 1 2 ack 40 ------- 3 6.0 2.0 4 44
- 3.180777 1 2 ack 40 ------- 3 6.0 2.0 4 44
r 3.185523 6 7 ack 40 ------- 2 5.0 1.0 5 48
+ 3.185523 7 0 ack 40 ------- 2 5.0 1.0 5 48
- 3.185523 7 0 ack 40 ------- 2 5.0 1.0 5 48
r 3.187283 3 4 tcp 1540 ------- 1 0.0 4.0 6 39
+ 3.187283 4 3 ack 40 ------- 1 4.0 0.0 6 55
- 3.187283 4 3 ack 40 ------- 1 4.0 0.0 6 55
r 3.18792 0 1 ack 40 ------- 4 7.0 3.0 6 49
+ 3.18792 1 2 ack 40 ------- 4 7.0 3.0 6 49
- 3.18792 1 2 ack 40 ------- 4 7.0 3.0 6 49
r 3.204083 4 3 ack 40 ------- 1 4.0 0.0 3 52
+ 3.204083 3 2 ack 40 ------- 1 4.0 0.0 3 52
- 3.204083 3 2 ack 40 ------- 1 4.0 0.0 3 52
r 3.213657 7 0 ack 40 ------- 3 6.0 2.0 6 50
+ 3.213657 0 1 ack 40 ------- 3 6.0 2.0 6 50
- 3.213657 0 1 ack 40 ------- 3 6.0 2.0 6 50
r 3.222377 0 1 ack 40 ------- 3 6.0 2.0 5 47
+ 3.222377 1 2 ack 40 ------- 3 6.0 2.0 5 47
- 3.222377 1 2 ack 40 ------- 3 6.0 2.0 5 47
r 3.227123 6 7 ack 40 ------- 2 5.0 1.0 6 51
+ 3.227123 7 0 ack 40 ------- 2 5.0 1.0 6 51
- 3.227123 7 0 ack 40 ------- 2 5.0 1.0 6 51
r 3.254403 3 2 ack 40 ------- 1 4.0 0.0 3 52
+ 3.254403 2 1 ack 40 ------- 1 4.0 0.0 3 52
- 3.254403 2 1 ack 40 ------- 1 4.0 0.0 3 52
r 3.263977 0 1 ack 40 ------- 3 6.0 2.0 6 50
+ 3.263977 1 2 ack 40 ------- 3 6.0 2.0 6 50
- 3.263977 1 2 ack 40 ------- 3 6.0 2.0 6 50
r 3.26472 1 2 ack 40 ------- 4 7.0 3.0 3 40
+ 3.26472 2 3 ack 40 ------- 4 7.0 3.0 3 40
- 3.26472 2 3 ack 40 ------- 4 7.0 3.0 3 40
r 3.265683 4 3 ack 40 ------- 1 4.0 0.0 4 53
+ 3.265683 3 2 ack 40 ------- 1 4.0 0.0 4 53
- 3.265683 3 2 ack 40 ------- 1 4.0 0.0 4 53
r 3.303923 7 0 ack 40 ------- 2 5.0 1.0 3 42
+ 3.303923 0 1 ack 40 ------- 2 5.0 1.0 3 42
- 3.303923 0 1 ack 40 ------- 2 5.0 1.0 3 42
r 3.30632 1 2 ack 40 ------- 4 7.0 3.0 4 43
+ 3.30632 2 3 ack 40 ------- 4 7.0 3.0 4 43
- 3.30632 2 3 ack 40 ------- 4 7.0 3.0 4 43
r 3.31504 2 3 ack 40 ------- 4 7.0 3.0 3 40
+ 3.31504 3 2 tcp 1040 ------- 4 3.0 7.0 7 56
- 3.31504 3 2 tcp 1040 ------- 4 3.0 7.0 7 56
+ 3.31504 3 2 tcp 1040 ------- 4 3.0 7.0 8 57
r 3.316003 3 2 ack 40 ------- 1 4.0 0.0 4 53
+ 3.316003 2 1 ack 40 ------- 1 4.0 0.0 4 53
- 3.316003 2 1 ack 40 ------- 1 4.0 0.0 4 53
- 3.32336 3 2 tcp 1040 ------- 4 3.0 7.0 8 57
r 3.327283 4 3 ack 40 ------- 1 4.0 0.0 5 54
+ 3.327283 3 2 ack 40 ------- 1 4.0 0.0 5 54
- 3.33168 3 2 ack 40 ------- 1 4.0 0.0 5 54
r 3.340777 1 2 ack 40 ------- 3 6.0 2.0 3 41
+ 3.340777 2 3 exp 1040 ------- 3 2.0 6.0 0 58
- 3.340777 2 3 exp 1040 ------- 3 2.0 6.0 0 58
+ 3.340777 2 3 exp 1040 ------- 3 2.0 6.0 0 59
r 3.345523 7 0 ack 40 ------- 2 5.0 1.0 4 45
+ 3.345523 0 1 ack 40 ------- 2 5.0 1.0 4 45
- 3.345523 0 1 ack 40 ------- 2 5.0 1.0 4 45
r 3.34792 1 2 ack 40 ------- 4 7.0 3.0 5 46
+ 3.34792 2 3 ack 40 ------- 4 7.0 3.0 5 46
- 3.349097 2 3 exp 1040 ------- 3 2.0 6.0 0 59
r 3.354243 0 1 ack 40 ------- 2 5.0 1.0 3 42
+ 3.354243 1 2 exp 1040 ------- 2 1.0 5.0 0 60
- 3.354243 1 2 exp 1040 ------- 2 1.0 5.0 0 60
+ 3.354243 1 2 exp 1040 ------- 2 1.0 5.0 0 61
r 3.35664 2 3 ack 40 ------- 4 7.0 3.0 4 43
+ 3.35664 3 2 tcp 1040 ------- 4 3.0 7.0 9 62
- 3.35664 3 2 tcp 1040 ------- 4 3.0 7.0 9 62
+ 3.35664 3 2 tcp 1040 ------- 4 3.0 7.0 10 63
- 3.357417 2 3 ack 40 ------- 4 7.0 3.0 5 46
- 3.36496 3 2 tcp 1040 ------- 4 3.0 7.0 10 63
r 3.37336 3 2 tcp 1040 ------- 4 3.0 7.0 7 56
+ 3.37336 2 1 tcp 1040 ------- 4 3.0 7.0 7 56
- 3.37336 2 1 tcp 1040 ------- 4 3.0 7.0 7 56
r 3.38168 3 2 tcp 1040 ------- 4 3.0 7.0 8 57
+ 3.38168 2 1 tcp 1040 ------- 4 3.0 7.0 8 57
r 3.382 3 2 ack 40 ------- 1 4.0 0.0 5 54
+ 3.382 2 1 ack 40 ------- 1 4.0 0.0 5 54
r 3.382377 1 2 ack 40 ------- 3 6.0 2.0 4 44
+ 3.382377 2 3 exp 1040 ------- 3 2.0 6.0 0 64
- 3.382377 2 3 exp 1040 ------- 3 2.0 6.0 0 64
+ 3.382377 2 3 exp 1040 ------- 3 2.0 6.0 0 65
r 3.387123 7 0 ack 40 ------- 2 5.0 1.0 5 48
+ 3.387123 0 1 ack 40 ------- 2 5.0 1.0 5 48
- 3.387123 0 1 ack 40 ------- 2 5.0 1.0 5 48
r 3.388883 4 3 ack 40 ------- 1 4.0 0.0 6 55
+ 3.388883 3 2 ack 40 ------- 1 4.0 0.0 6 55
- 3.388883 3 2 ack 40 ------- 1 4.0 0.0 6 55