+ 0.1 1 3 tcp 40 ------- 2 1.0 6.0 0 0
- 0.1 1 3 tcp 40 ------- 2 1.0 6.0 0 0
+ 0.1 8 3 tcp 40 ------- 4 8.0 9.0 0 1
- 0.1 8 3 tcp 40 ------- 4 8.0 9.0 0 1
+ 0.125737 0 3 exp 40 ------- 1 0.0 5.0 0 2
- 0.125737 0 3 exp 40 ------- 1 0.0 5.0 0 2
+ 0.139203 2 3 exp 40 ------- 3 2.0 7.0 0 3
- 0.139203 2 3 exp 40 ------- 3 2.0 7.0 0 3
r 0.15032 1 3 tcp 40 ------- 2 1.0 6.0 0 0
+ 0.15032 3 4 tcp 40 ------- 2 1.0 6.0 0 0
- 0.15032 3 4 tcp 40 ------- 2 1.0 6.0 0 0
r 0.15032 8 3 tcp 40 ------- 4 8.0 9.0 0 1
+ 0.15032 3 4 tcp 40 ------- 4 8.0 9.0 0 1
- 0.150323 3 4 tcp 40 ------- 4 8.0 9.0 0 1
r 0.176057 0 3 exp 40 ------- 1 0.0 5.0 0 2
+ 0.176057 3 4 exp 40 ------- 1 0.0 5.0 0 2
- 0.176057 3 4 exp 40 ------- 1 0.0 5.0 0 2
r 0.189523 2 3 exp 40 ------- 3 2.0 7.0 0 3
+ 0.189523 3 4 exp 40 ------- 3 2.0 7.0 0 3
- 0.189523 3 4 exp 40 ------- 3 2.0 7.0 0 3
r 0.200323 3 4 tcp 40 ------- 2 1.0 6.0 0 0
+ 0.200323 4 6 tcp 40 ------- 2 1.0 6.0 0 0
- 0.200323 4 6 tcp 40 ------- 2 1.0 6.0 0 0
r 0.200326 3 4 tcp 40 ------- 4 8.0 9.0 0 1
+ 0.200326 4 9 tcp 40 ------- 4 8.0 9.0 0 1
- 0.200326 4 9 tcp 40 ------- 4 8.0 9.0 0 1
r 0.22606 3 4 exp 40 ------- 1 0.0 5.0 0 2
+ 0.22606 4 5 exp 40 ------- 1 0.0 5.0 0 2
- 0.22606 4 5 exp 40 ------- 1 0.0 5.0 0 2
r 0.239526 3 4 exp 40 ------- 3 2.0 7.0 0 3
+ 0.239526 4 7 exp 40 ------- 3 2.0 7.0 0 3
- 0.239526 4 7 exp 40 ------- 3 2.0 7.0 0 3
r 0.401923 4 6 tcp 40 ------- 2 1.0 6.0 0 0
+ 0.401923 6 4 ack 40 ------- 2 6.0 1.0 0 4
- 0.401923 6 4 ack 40 ------- 2 6.0 1.0 0 4
r 0.401926 4 9 tcp 40 ------- 4 8.0 9.0 0 1
+ 0.401926 9 4 ack 40 ------- 4 9.0 8.0 0 5
- 0.401926 9 4 ack 40 ------- 4 9.0 8.0 0 5
r 0.42766 4 5 exp 40 ------- 1 0.0 5.0 0 2
+ 0.42766 5 4 ack 40 ------- 1 5.0 0.0 0 6
- 0.42766 5 4 ack 40 ------- 1 5.0 0.0 0 6
r 0.441126 4 7 exp 40 ------- 3 2.0 7.0 0 3
+ 0.441126 7 4 ack 40 ------- 3 7.0 2.0 0 7
- 0.441126 7 4 ack 40 ------- 3 7.0 2.0 0 7
r 0.603523 6 4 ack 40 ------- 2 6.0 1.0 0 4
+ 0.603523 4 3 ack 40 ------- 2 6.0 1.0 0 4
- 0.603523 4 3 ack 40 ------- 2 6.0 1.0 0 4
r 0.603526 9 4 ack 40 ------- 4 9.0 8.0 0 5
+ 0.603526 4 3 ack 40 ------- 4 9.0 8.0 0 5
- 0.603526 4 3 ack 40 ------- 4 9.0 8.0 0 5
r 0.62926 5 4 ack 40 ------- 1 5.0 0.0 0 6
+ 0.62926 4 3 ack 40 ------- 1 5.0 0.0 0 6
- 0.62926 4 3 ack 40 ------- 1 5.0 0.0 0 6
r 0.642726 7 4 ack 40 ------- 3 7.0 2.0 0 7
+ 0.642726 4 3 ack 40 ------- 3 7.0 2.0 0 7
- 0.642726 4 3 ack 40 ------- 3 7.0 2.0 0 7
r 0.653526 4 3 ack 40 ------- 2 6.0 1.0 0 4
+ 0.653526 3 1 ack 40 ------- 2 6.0 1.0 0 4
- 0.653526 3 1 ack 40 ------- 2 6.0 1.0 0 4
r 0.65353 4 3 ack 40 ------- 4 9.0 8.0 0 5
+ 0.65353 3 8 ack 40 ------- 4 9.0 8.0 0 5
- 0.65353 3 8 ack 40 ------- 4 9.0 8.0 0 5
r 0.679263 4 3 ack 40 ------- 1 5.0 0.0 0 6
+ 0.679263 3 0 ack 40 ------- 1 5.0 0.0 0 6
- 0.679263 3 0 ack 40 ------- 1 5.0 0.0 0 6
r 0.692729 4 3 ack 40 ------- 3 7.0 2.0 0 7
+ 0.692729 3 2 ack 40 ------- 3 7.0 2.0 0 7
- 0.692729 3 2 ack 40 ------- 3 7.0 2.0 0 7
r 0.703846 3 1 ack 40 ------- 2 6.0 1.0 0 4
+ 0.703846 1 3 tcp 1040 ------- 2 1.0 6.0 1 8
- 0.703846 1 3 tcp 1040 ------- 2 1.0 6.0 1 8
+ 0.703846 1 3 tcp 1040 ------- 2 1.0 6.0 2 9
r 0.70385 3 8 ack 40 ------- 4 9.0 8.0 0 5
+ 0.70385 8 3 tcp 1040 ------- 4 8.0 9.0 1 10
- 0.70385 8 3 tcp 1040 ------- 4 8.0 9.0 1 10
+ 0.70385 8 3 tcp 1040 ------- 4 8.0 9.0 2 11
- 0.712166 1 3 tcp 1040 ------- 2 1.0 6.0 2 9
- 0.71217 8 3 tcp 1040 ------- 4 8.0 9.0 2 11
r 0.729583 3 0 ack 40 ------- 1 5.0 0.0 0 6
+ 0.729583 0 3 exp 1540 ------- 1 0.0 5.0 0 12
- 0.729583 0 3 exp 1540 ------- 1 0.0 5.0 0 12
+ 0.729583 0 3 exp 1540 ------- 1 0.0 5.0 0 13
- 0.741903 0 3 exp 1540 ------- 1 0.0 5.0 0 13
r 0.743049 3 2 ack 40 ------- 3 7.0 2.0 0 7
+ 0.743049 2 3 exp 1040 ------- 3 2.0 7.0 0 14
- 0.743049 2 3 exp 1040 ------- 3 2.0 7.0 0 14
+ 0.743049 2 3 exp 1040 ------- 3 2.0 7.0 0 15
- 0.751369 2 3 exp 1040 ------- 3 2.0 7.0 0 15
r 0.762166 1 3 tcp 1040 ------- 2 1.0 6.0 1 8
+ 0.762166 3 4 tcp 1040 ------- 2 1.0 6.0 1 8
- 0.762166 3 4 tcp 1040 ------- 2 1.0 6.0 1 8
r 0.76217 8 3 tcp 1040 ------- 4 8.0 9.0 1 10
+ 0.76217 3 4 tcp 1040 ------- 4 8.0 9.0 1 10
- 0.76225 3 4 tcp 1040 ------- 4 8.0 9.0 1 10
r 0.770486 1 3 tcp 1040 ------- 2 1.0 6.0 2 9
+ 0.770486 3 4 tcp 1040 ------- 2 1.0 6.0 2 9
- 0.770486 3 4 tcp 1040 ------- 2 1.0 6.0 2 9
r 0.77049 8 3 tcp 1040 ------- 4 8.0 9.0 2 11
+ 0.77049 3 4 tcp 1040 ------- 4 8.0 9.0 2 11
- 0.77057 3 4 tcp 1040 ------- 4 8.0 9.0 2 11
r 0.791903 0 3 exp 1540 ------- 1 0.0 5.0 0 12
+ 0.791903 3 4 exp 1540 ------- 1 0.0 5.0 0 12
- 0.791903 3 4 exp 1540 ------- 1 0.0 5.0 0 12
r 0.801369 2 3 exp 1040 ------- 3 2.0 7.0 0 14
+ 0.801369 3 4 exp 1040 ------- 3 2.0 7.0 0 14
- 0.801369 3 4 exp 1040 ------- 3 2.0 7.0 0 14
r 0.804223 0 3 exp 1540 ------- 1 0.0 5.0 0 13
+ 0.804223 3 4 exp 1540 ------- 1 0.0 5.0 0 13
- 0.804223 3 4 exp 1540 ------- 1 0.0 5.0 0 13
r 0.809689 2 3 exp 1040 ------- 3 2.0 7.0 0 15
+ 0.809689 3 4 exp 1040 ------- 3 2.0 7.0 0 15
- 0.809689 3 4 exp 1040 ------- 3 2.0 7.0 0 15
r 0.81225 3 4 tcp 1040 ------- 2 1.0 6.0 1 8
+ 0.81225 4 6 tcp 1040 ------- 2 1.0 6.0 1 8
- 0.81225 4 6 tcp 1040 ------- 2 1.0 6.0 1 8
r 0.812333 3 4 tcp 1040 ------- 4 8.0 9.0 1 10
+ 0.812333 4 9 tcp 1040 ------- 4 8.0 9.0 1 10
- 0.812333 4 9 tcp 1040 ------- 4 8.0 9.0 1 10
r 0.82057 3 4 tcp 1040 ------- 2 1.0 6.0 2 9
+ 0.82057 4 6 tcp 1040 ------- 2 1.0 6.0 2 9
r 0.820653 3 4 tcp 1040 ------- 4 8.0 9.0 2 11
+ 0.820653 4 9 tcp 1040 ------- 4 8.0 9.0 2 11
r 0.842027 3 4 exp 1540 ------- 1 0.0 5.0 0 12
+ 0.842027 4 5 exp 1540 ------- 1 0.0 5.0 0 12
- 0.842027 4 5 exp 1540 ------- 1 0.0 5.0 0 12
r 0.851453 3 4 exp 1040 ------- 3 2.0 7.0 0 14
+ 0.851453 4 7 exp 1040 ------- 3 2.0 7.0 0 14
- 0.851453 4 7 exp 1040 ------- 3 2.0 7.0 0 14
- 0.85385 4 6 tcp 1040 ------- 2 1.0 6.0 2 9
- 0.853933 4 9 tcp 1040 ------- 4 8.0 9.0 2 11
r 0.854347 3 4 exp 1540 ------- 1 0.0 5.0 0 13
+ 0.854347 4 5 exp 1540 ------- 1 0.0 5.0 0 13
r 0.859773 3 4 exp 1040 ------- 3 2.0 7.0 0 15
+ 0.859773 4 7 exp 1040 ------- 3 2.0 7.0 0 15
- 0.893053 4 7 exp 1040 ------- 3 2.0 7.0 0 15
- 0.903627 4 5 exp 1540 ------- 1 0.0 5.0 0 13
r 1.05385 4 6 tcp 1040 ------- 2 1.0 6.0 1 8
+ 1.05385 6 4 ack 40 ------- 2 6.0 1.0 1 16
- 1.05385 6 4 ack 40 ------- 2 6.0 1.0 1 16
r 1.053933 4 9 tcp 1040 ------- 4 8.0 9.0 1 10
+ 1.053933 9 4 ack 40 ------- 4 9.0 8.0 1 17
- 1.053933 9 4 ack 40 ------- 4 9.0 8.0 1 17
r 1.093053 4 7 exp 1040 ------- 3 2.0 7.0 0 14
+ 1.093053 7 4 ack 40 ------- 3 7.0 2.0 1 18
- 1.093053 7 4 ack 40 ------- 3 7.0 2.0 1 18
r 1.09545 4 6 tcp 1040 ------- 2 1.0 6.0 2 9
+ 1.09545 6 4 ack 40 ------- 2 6.0 1.0 2 19
- 1.09545 6 4 ack 40 ------- 2 6.0 1.0 2 19
r 1.095533 4 9 tcp 1040 ------- 4 8.0 9.0 2 11
+ 1.095533 9 4 ack 40 ------- 4 9.0 8.0 2 20
- 1.095533 9 4 ack 40 ------- 4 9.0 8.0 2 20
r 1.103627 4 5 exp 1540 ------- 1 0.0 5.0 0 12
+ 1.103627 5 4 ack 40 ------- 1 5.0 0.0 1 21
- 1.103627 5 4 ack 40 ------- 1 5.0 0.0 1 21
r 1.134653 4 7 exp 1040 ------- 3 2.0 7.0 0 15
+ 1.134653 7 4 ack 40 ------- 3 7.0 2.0 2 22
- 1.134653 7 4 ack 40 ------- 3 7.0 2.0 2 22
r 1.165227 4 5 exp 1540 ------- 1 0.0 5.0 0 13
+ 1.165227 5 4 ack 40 ------- 1 5.0 0.0 2 23
- 1.165227 5 4 ack 40 ------- 1 5.0 0.0 2 23
r 1.25545 6 4 ack 40 ------- 2 6.0 1.0 1 16
+ 1.25545 4 3 ack 40 ------- 2 6.0 1.0 1 16
- 1.25545 4 3 ack 40 ------- 2 6.0 1.0 1 16
r 1.255533 9 4 ack 40 ------- 4 9.0 8.0 1 17
+ 1.255533 4 3 ack 40 ------- 4 9.0 8.0 1 17
- 1.255533 4 3 ack 40 ------- 4 9.0 8.0 1 17
r 1.294653 7 4 ack 40 ------- 3 7.0 2.0 1 18
+ 1.294653 4 3 ack 40 ------- 3 7.0 2.0 1 18
- 1.294653 4 3 ack 40 ------- 3 7.0 2.0 1 18
r 1.29705 6 4 ack 40 ------- 2 6.0 1.0 2 19
+ 1.29705 4 3 ack 40 ------- 2 6.0 1.0 2 19
- 1.29705 4 3 ack 40 ------- 2 6.0 1.0 2 19
r 1.297133 9 4 ack 40 ------- 4 9.0 8.0 2 20
+ 1.297133 4 3 ack 40 ------- 4 9.0 8.0 2 20
- 1.297133 4 3 ack 40 ------- 4 9.0 8.0 2 20
r 1.305227 5 4 ack 40 ------- 1 5.0 0.0 1 21
+ 1.305227 4 3 ack 40 ------- 1 5.0 0.0 1 21
- 1.305227 4 3 ack 40 ------- 1 5.0 0.0 1 21
r 1.305453 4 3 ack 40 ------- 2 6.0 1.0 1 16
+ 1.305453 3 1 ack 40 ------- 2 6.0 1.0 1 16
- 1.305453 3 1 ack 40 ------- 2 6.0 1.0 1 16
r 1.305536 4 3 ack 40 ------- 4 9.0 8.0 1 17
+ 1.305536 3 8 ack 40 ------- 4 9.0 8.0 1 17
- 1.305536 3 8 ack 40 ------- 4 9.0 8.0 1 17
r 1.336253 7 4 ack 40 ------- 3 7.0 2.0 2 22
+ 1.336253 4 3 ack 40 ------- 3 7.0 2.0 2 22
- 1.336253 4 3 ack 40 ------- 3 7.0 2.0 2 22
r 1.344656 4 3 ack 40 ------- 3 7.0 2.0 1 18
+ 1.344656 3 2 ack 40 ------- 3 7.0 2.0 1 18
- 1.344656 3 2 ack 40 ------- 3 7.0 2.0 1 18
r 1.347053 4 3 ack 40 ------- 2 6.0 1.0 2 19
+ 1.347053 3 1 ack 40 ------- 2 6.0 1.0 2 19
- 1.347053 3 1 ack 40 ------- 2 6.0 1.0 2 19
r 1.347136 4 3 ack 40 ------- 4 9.0 8.0 2 20
+ 1.347136 3 8 ack 40 ------- 4 9.0 8.0 2 20
- 1.347136 3 8 ack 40 ------- 4 9.0 8.0 2 20
r 1.35523 4 3 ack 40 ------- 1 5.0 0.0 1 21
+ 1.35523 3 0 ack 40 ------- 1 5.0 0.0 1 21
- 1.35523 3 0 ack 40 ------- 1 5.0 0.0 1 21
r 1.355773 3 1 ack 40 ------- 2 6.0 1.0 1 16
+ 1.355773 1 3 tcp 1040 ------- 2 1.0 6.0 3 24
- 1.355773 1 3 tcp 1040 ------- 2 1.0 6.0 3 24
+ 1.355773 1 3 tcp 1040 ------- 2 1.0 6.0 4 25
r 1.355856 3 8 ack 40 ------- 4 9.0 8.0 1 17
+ 1.355856 8 3 tcp 1040 ------- 4 8.0 9.0 3 26
- 1.355856 8 3 tcp 1040 ------- 4 8.0 9.0 3 26
+ 1.355856 8 3 tcp 1040 ------- 4 8.0 9.0 4 27
- 1.364093 1 3 tcp 1040 ------- 2 1.0 6.0 4 25
- 1.364176 8 3 tcp 1040 ------- 4 8.0 9.0 4 27
r 1.366827 5 4 ack 40 ------- 1 5.0 0.0 2 23
+ 1.366827 4 3 ack 40 ------- 1 5.0 0.0 2 23
- 1.366827 4 3 ack 40 ------- 1 5.0 0.0 2 23
r 1.386256 4 3 ack 40 ------- 3 7.0 2.0 2 22
+ 1.386256 3 2 ack 40 ------- 3 7.0 2.0 2 22
- 1.386256 3 2 ack 40 ------- 3 7.0 2.0 2 22
r 1.394976 3 2 ack 40 ------- 3 7.0 2.0 1 18
+ 1.394976 2 3 exp 1040 ------- 3 2.0 7.0 0 28
- 1.394976 2 3 exp 1040 ------- 3 2.0 7.0 0 28
+ 1.394976 2 3 exp 1040 ------- 3 2.0 7.0 0 29
r 1.397373 3 1 ack 40 ------- 2 6.0 1.0 2 19
+ 1.397373 1 3 tcp 1040 ------- 2 1.0 6.0 5 30
- 1.397373 1 3 tcp 1040 ------- 2 1.0 6.0 5 30
+ 1.397373 1 3 tcp 1040 ------- 2 1.0 6.0 6 31
r 1.397456 3 8 ack 40 ------- 4 9.0 8.0 2 20
+ 1.397456 8 3 tcp 1040 ------- 4 8.0 9.0 5 32
- 1.397456 8 3 tcp 1040 ------- 4 8.0 9.0 5 32
+ 1.397456 8 3 tcp 1040 ------- 4 8.0 9.0 6 33
- 1.403296 2 3 exp 1040 ------- 3 2.0 7.0 0 29
r 1.40555 3 0 ack 40 ------- 1 5.0 0.0 1 21
+ 1.40555 0 3 exp 1540 ------- 1 0.0 5.0 0 34
- 1.40555 0 3 exp 1540 ------- 1 0.0 5.0 0 34
+ 1.40555 0 3 exp 1540 ------- 1 0.0 5.0 0 35
- 1.405693 1 3 tcp 1040 ------- 2 1.0 6.0 6 31
- 1.405776 8 3 tcp 1040 ------- 4 8.0 9.0 6 33
r 1.414093 1 3 tcp 1040 ------- 2 1.0 6.0 3 24
+ 1.414093 3 4 tcp 1040 ------- 2 1.0 6.0 3 24
- 1.414093 3 4 tcp 1040 ------- 2 1.0 6.0 3 24
r 1.414176 8 3 tcp 1040 ------- 4 8.0 9.0 3 26
+ 1.414176 3 4 tcp 1040 ------- 4 8.0 9.0 3 26
- 1.414176 3 4 tcp 1040 ------- 4 8.0 9.0 3 26
r 1.41683 4 3 ack 40 ------- 1 5.0 0.0 2 23
+ 1.41683 3 0 ack 40 ------- 1 5.0 0.0 2 23
- 1.41683 3 0 ack 40 ------- 1 5.0 0.0 2 23
- 1.41787 0 3 exp 1540 ------- 1 0.0 5.0 0 35
r 1.422413 1 3 tcp 1040 ------- 2 1.0 6.0 4 25
+ 1.422413 3 4 tcp 1040 ------- 2 1.0 6.0 4 25
- 1.422413 3 4 tcp 1040 ------- 2 1.0 6.0 4 25
r 1.422496 8 3 tcp 1040 ------- 4 8.0 9.0 4 27
+ 1.422496 3 4 tcp 1040 ------- 4 8.0 9.0 4 27
- 1.422496 3 4 tcp 1040 ------- 4 8.0 9.0 4 27
r 1.436576 3 2 ack 40 ------- 3 7.0 2.0 2 22
+ 1.436576 2 3 exp 1040 ------- 3 2.0 7.0 0 36
- 1.436576 2 3 exp 1040 ------- 3 2.0 7.0 0 36
+ 1.436576 2 3 exp 1040 ------- 3 2.0 7.0 0 37
- 1.444896 2 3 exp 1040 ------- 3 2.0 7.0 0 37
r 1.453296 2 3 exp 1040 ------- 3 2.0 7.0 0 28
+ 1.453296 3 4 exp 1040 ------- 3 2.0 7.0 0 28
- 1.453296 3 4 exp 1040 ------- 3 2.0 7.0 0 28
r 1.455693 1 3 tcp 1040 ------- 2 1.0 6.0 5 30
+ 1.455693 3 4 tcp 1040 ------- 2 1.0 6.0 5 30
- 1.455693 3 4 tcp 1040 ------- 2 1.0 6.0 5 30
r 1.455776 8 3 tcp 1040 ------- 4 8.0 9.0 5 32
+ 1.455776 3 4 tcp 1040 ------- 4 8.0 9.0 5 32
- 1.455776 3 4 tcp 1040 ------- 4 8.0 9.0 5 32
r 1.461616 2 3 exp 1040 ------- 3 2.0 7.0 0 29
+ 1.461616 3 4 exp 1040 ------- 3 2.0 7.0 0 29
- 1.461616 3 4 exp 1040 ------- 3 2.0 7.0 0 29
r 1.464013 1 3 tcp 1040 ------- 2 1.0 6.0 6 31
+ 1.464013 3 4 tcp 1040 ------- 2 1.0 6.0 6 31
- 1.464013 3 4 tcp 1040 ------- 2 1.0 6.0 6 31
r 1.464096 8 3 tcp 1040 ------- 4 8.0 9.0 6 33
+ 1.464096 3 4 tcp 1040 ------- 4 8.0 9.0 6 33
- 1.464096 3 4 tcp 1040 ------- 4 8.0 9.0 6 33
r 1.464176 3 4 tcp 1040 ------- 2 1.0 6.0 3 24
+ 1.464176 4 6 tcp 1040 ------- 2 1.0 6.0 3 24
- 1.464176 4 6 tcp 1040 ------- 2 1.0 6.0 3 24
r 1.464259 3 4 tcp 1040 ------- 4 8.0 9.0 3 26
+ 1.464259 4 9 tcp 1040 ------- 4 8.0 9.0 3 26
- 1.464259 4 9 tcp 1040 ------- 4 8.0 9.0 3 26
r 1.46715 3 0 ack 40 ------- 1 5.0 0.0 2 23
+ 1.46715 0 3 exp 1540 ------- 1 0.0 5.0 0 38
- 1.46715 0 3 exp 1540 ------- 1 0.0 5.0 0 38
+ 1.46715 0 3 exp 1540 ------- 1 0.0 5.0 0 39
r 1.46787 0 3 exp 1540 ------- 1 0.0 5.0 0 34
+ 1.46787 3 4 exp 1540 ------- 1 0.0 5.0 0 34
- 1.46787 3 4 exp 1540 ------- 1 0.0 5.0 0 34
r 1.472496 3 4 tcp 1040 ------- 2 1.0 6.0 4 25
+ 1.472496 4 6 tcp 1040 ------- 2 1.0 6.0 4 25
r 1.472579 3 4 tcp 1040 ------- 4 8.0 9.0 4 27
+ 1.472579 4 9 tcp 1040 ------- 4 8.0 9.0 4 27
- 1.47947 0 3 exp 1540 ------- 1 0.0 5.0 0 39
r 1.48019 0 3 exp 1540 ------- 1 0.0 5.0 0 35
+ 1.48019 3 4 exp 1540 ------- 1 0.0 5.0 0 35
- 1.48019 3 4 exp 1540 ------- 1 0.0 5.0 0 35
r 1.494896 2 3 exp 1040 ------- 3 2.0 7.0 0 36
+ 1.494896 3 4 exp 1040 ------- 3 2.0 7.0 0 36
- 1.494896 3 4 exp 1040 ------- 3 2.0 7.0 0 36
r 1.503216 2 3 exp 1040 ------- 3 2.0 7.0 0 37
+ 1.503216 3 4 exp 1040 ------- 3 2.0 7.0 0 37
- 1.503216 3 4 exp 1040 ------- 3 2.0 7.0 0 37
r 1.503379 3 4 exp 1040 ------- 3 2.0 7.0 0 28
+ 1.503379 4 7 exp 1040 ------- 3 2.0 7.0 0 28
- 1.503379 4 7 exp 1040 ------- 3 2.0 7.0 0 28
r 1.505776 3 4 tcp 1040 ------- 2 1.0 6.0 5 30
+ 1.505776 4 6 tcp 1040 ------- 2 1.0 6.0 5 30
- 1.505776 4 6 tcp 1040 ------- 2 1.0 6.0 4 25
r 1.505859 3 4 tcp 1040 ------- 4 8.0 9.0 5 32
+ 1.505859 4 9 tcp 1040 ------- 4 8.0 9.0 5 32
- 1.505859 4 9 tcp 1040 ------- 4 8.0 9.0 4 27
r 1.511699 3 4 exp 1040 ------- 3 2.0 7.0 0 29
+ 1.511699 4 7 exp 1040 ------- 3 2.0 7.0 0 29
r 1.514096 3 4 tcp 1040 ------- 2 1.0 6.0 6 31
+ 1.514096 4 6 tcp 1040 ------- 2 1.0 6.0 6 31
r 1.514179 3 4 tcp 1040 ------- 4 8.0 9.0 6 33
+ 1.514179 4 9 tcp 1040 ------- 4 8.0 9.0 6 33
r 1.517993 3 4 exp 1540 ------- 1 0.0 5.0 0 34
+ 1.517993 4 5 exp 1540 ------- 1 0.0 5.0 0 34
- 1.517993 4 5 exp 1540 ------- 1 0.0 5.0 0 34
r 1.52947 0 3 exp 1540 ------- 1 0.0 5.0 0 38
+ 1.52947 3 4 exp 1540 ------- 1 0.0 5.0 0 38
- 1.52947 3 4 exp 1540 ------- 1 0.0 5.0 0 38
r 1.530313 3 4 exp 1540 ------- 1 0.0 5.0 0 35
+ 1.530313 4 5 exp 1540 ------- 1 0.0 5.0 0 35
r 1.54179 0 3 exp 1540 ------- 1 0.0 5.0 0 39
+ 1.54179 3 4 exp 1540 ------- 1 0.0 5.0 0 39
- 1.54179 3 4 exp 1540 ------- 1 0.0 5.0 0 39
r 1.544979 3 4 exp 1040 ------- 3 2.0 7.0 0 36
+ 1.544979 4 7 exp 1040 ------- 3 2.0 7.0 0 36
- 1.544979 4 7 exp 1040 ------- 3 2.0 7.0 0 29
- 1.547376 4 6 tcp 1040 ------- 2 1.0 6.0 5 30
- 1.547459 4 9 tcp 1040 ------- 4 8.0 9.0 5 32
r 1.553299 3 4 exp 1040 ------- 3 2.0 7.0 0 37
+ 1.553299 4 7 exp 1040 ------- 3 2.0 7.0 0 37
- 1.579593 4 5 exp 1540 ------- 1 0.0 5.0 0 35
r 1.579593 3 4 exp 1540 ------- 1 0.0 5.0 0 38
+ 1.579593 4 5 exp 1540 ------- 1 0.0 5.0 0 38
- 1.586579 4 7 exp 1040 ------- 3 2.0 7.0 0 36
- 1.588976 4 6 tcp 1040 ------- 2 1.0 6.0 6 31
- 1.589059 4 9 tcp 1040 ------- 4 8.0 9.0 6 33
r 1.591913 3 4 exp 1540 ------- 1 0.0 5.0 0 39
+ 1.591913 4 5 exp 1540 ------- 1 0.0 5.0 0 39
- 1.628179 4 7 exp 1040 ------- 3 2.0 7.0 0 37
- 1.641193 4 5 exp 1540 ------- 1 0.0 5.0 0 38
- 1.702793 4 5 exp 1540 ------- 1 0.0 5.0 0 39
r 1.705776 4 6 tcp 1040 ------- 2 1.0 6.0 3 24
+ 1.705776 6 4 ack 40 ------- 2 6.0 1.0 3 40
- 1.705776 6 4 ack 40 ------- 2 6.0 1.0 3 40
r 1.705859 4 9 tcp 1040 ------- 4 8.0 9.0 3 26
+ 1.705859 9 4 ack 40 ------- 4 9.0 8.0 3 41
- 1.705859 9 4 ack 40 ------- 4 9.0 8.0 3 41
r 1.744979 4 7 exp 1040 ------- 3 2.0 7.0 0 28
+ 1.744979 7 4 ack 40 ------- 3 7.0 2.0 3 42
- 1.744979 7 4 ack 40 ------- 3 7.0 2.0 3 42
r 1.747376 4 6 tcp 1040 ------- 2 1.0 6.0 4 25
+ 1.747376 6 4 ack 40 ------- 2 6.0 1.0 4 43
- 1.747376 6 4 ack 40 ------- 2 6.0 1.0 4 43
r 1.747459 4 9 tcp 1040 ------- 4 8.0 9.0 4 27
+ 1.747459 9 4 ack 40 ------- 4 9.0 8.0 4 44
- 1.747459 9 4 ack 40 ------- 4 9.0 8.0 4 44
r 1.779593 4 5 exp 1540 ------- 1 0.0 5.0 0 34
+ 1.779593 5 4 ack 40 ------- 1 5.0 0.0 3 45
- 1.779593 5 4 ack 40 ------- 1 5.0 0.0 3 45
r 1.786579 4 7 exp 1040 ------- 3 2.0 7.0 0 29
+ 1.786579 7 4 ack 40 ------- 3 7.0 2.0 4 46
- 1.786579 7 4 ack 40 ------- 3 7.0 2.0 4 46
r 1.788976 4 6 tcp 1040 ------- 2 1.0 6.0 5 30
+ 1.788976 6 4 ack 40 ------- 2 6.0 1.0 5 47
- 1.788976 6 4 ack 40 ------- 2 6.0 1.0 5 47
r 1.789059 4 9 tcp 1040 ------- 4 8.0 9.0 5 32
+ 1.789059 9 4 ack 40 ------- 4 9.0 8.0 5 48
- 1.789059 9 4 ack 40 ------- 4 9.0 8.0 5 48
r 1.828179 4 7 exp 1040 ------- 3 2.0 7.0 0 36
+ 1.828179 7 4 ack 40 ------- 3 7.0 2.0 5 49
- 1.828179 7 4 ack 40 ------- 3 7.0 2.0 5 49
r 1.830576 4 6 tcp 1040 ------- 2 1.0 6.0 6 31
+ 1.830576 6 4 ack 40 ------- 2 6.0 1.0 6 50
- 1.830576 6 4 ack 40 ------- 2 6.0 1.0 6 50
r 1.830659 4 9 tcp 1040 ------- 4 8.0 9.0 6 33
+ 1.830659 9 4 ack 40 ------- 4 9.0 8.0 6 51
- 1.830659 9 4 ack 40 ------- 4 9.0 8.0 6 51
r 1.841193 4 5 exp 1540 ------- 1 0.0 5.0 0 35
+ 1.841193 5 4 ack 40 ------- 1 5.0 0.0 4 52
- 1.841193 5 4 ack 40 ------- 1 5.0 0.0 4 52
r 1.869779 4 7 exp 1040 ------- 3 2.0 7.0 0 37
+ 1.869779 7 4 ack 40 ------- 3 7.0 2.0 6 53
- 1.869779 7 4 ack 40 ------- 3 7.0 2.0 6 53
r 1.902793 4 5 exp 1540 ------- 1 0.0 5.0 0 38
+ 1.902793 5 4 ack 40 ------- 1 5.0 0.0 5 54
- 1.902793 5 4 ack 40 ------- 1 5.0 0.0 5 54
r 1.907376 6 4 ack 40 ------- 2 6.0 1.0 3 40
+ 1.907376 4 3 ack 40 ------- 2 6.0 1.0 3 40
- 1.907376 4 3 ack 40 ------- 2 6.0 1.0 3 40
r 1.907459 9 4 ack 40 ------- 4 9.0 8.0 3 41
+ 1.907459 4 3 ack 40 ------- 4 9.0 8.0 3 41
- 1.907459 4 3 ack 40 ------- 4 9.0 8.0 3 41
r 1.946579 7 4 ack 40 ------- 3 7.0 2.0 3 42
+ 1.946579 4 3 ack 40 ------- 3 7.0 2.0 3 42
- 1.946579 4 3 ack 40 ------- 3 7.0 2.0 3 42
r 1.948976 6 4 ack 40 ------- 2 6.0 1.0 4 43
+ 1.948976 4 3 ack 40 ------- 2 6.0 1.0 4 43
- 1.948976 4 3 ack 40 ------- 2 6.0 1.0 4 43
r 1.949059 9 4 ack 40 ------- 4 9.0 8.0 4 44
+ 1.949059 4 3 ack 40 ------- 4 9.0 8.0 4 44
- 1.949059 4 3 ack 40 ------- 4 9.0 8.0 4 44
r 1.957379 4 3 ack 40 ------- 2 6.0 1.0 3 40
+ 1.957379 3 1 ack 40 ------- 2 6.0 1.0 3 40
- 1.957379 3 1 ack 40 ------- 2 6.0 1.0 3 40
r 1.957462 4 3 ack 40 ------- 4 9.0 8.0 3 41
+ 1.957462 3 8 ack 40 ------- 4 9.0 8.0 3 41
- 1.957462 3 8 ack 40 ------- 4 9.0 8.0 3 41
r 1.964393 4 5 exp 1540 ------- 1 0.0 5.0 0 39
+ 1.964393 5 4 ack 40 ------- 1 5.0 0.0 6 55
- 1.964393 5 4 ack 40 ------- 1 5.0 0.0 6 55
r 1.981193 5 4 ack 40 ------- 1 5.0 0.0 3 45
+ 1.981193 4 3 ack 40 ------- 1 5.0 0.0 3 45
- 1.981193 4 3 ack 40 ------- 1 5.0 0.0 3 45
r 1.988179 7 4 ack 40 ------- 3 7.0 2.0 4 46
+ 1.988179 4 3 ack 40 ------- 3 7.0 2.0 4 46
- 1.988179 4 3 ack 40 ------- 3 7.0 2.0 4 46
r 1.990576 6 4 ack 40 ------- 2 6.0 1.0 5 47
+ 1.990576 4 3 ack 40 ------- 2 6.0 1.0 5 47
- 1.990576 4 3 ack 40 ------- 2 6.0 1.0 5 47
r 1.990659 9 4 ack 40 ------- 4 9.0 8.0 5 48
+ 1.990659 4 3 ack 40 ------- 4 9.0 8.0 5 48
- 1.990659 4 3 ack 40 ------- 4 9.0 8.0 5 48
r 1.996582 4 3 ack 40 ------- 3 7.0 2.0 3 42
+ 1.996582 3 2 ack 40 ------- 3 7.0 2.0 3 42
- 1.996582 3 2 ack 40 ------- 3 7.0 2.0 3 42
r 1.998979 4 3 ack 40 ------- 2 6.0 1.0 4 43
+ 1.998979 3 1 ack 40 ------- 2 6.0 1.0 4 43
- 1.998979 3 1 ack 40 ------- 2 6.0 1.0 4 43
r 1.999062 4 3 ack 40 ------- 4 9.0 8.0 4 44
+ 1.999062 3 8 ack 40 ------- 4 9.0 8.0 4 44
- 1.999062 3 8 ack 40 ------- 4 9.0 8.0 4 44
r 2.007699 3 1 ack 40 ------- 2 6.0 1.0 3 40
+ 2.007699 1 3 tcp 1040 ------- 2 1.0 6.0 7 56
- 2.007699 1 3 tcp 1040 ------- 2 1.0 6.0 7 56
+ 2.007699 1 3 tcp 1040 ------- 2 1.0 6.0 8 57
r 2.007782 3 8 ack 40 ------- 4 9.0 8.0 3 41
+ 2.007782 8 3 tcp 1040 ------- 4 8.0 9.0 7 58
- 2.007782 8 3 tcp 1040 ------- 4 8.0 9.0 7 58
+ 2.007782 8 3 tcp 1040 ------- 4 8.0 9.0 8 59
- 2.016019 1 3 tcp 1040 ------- 2 1.0 6.0 8 57
- 2.016102 8 3 tcp 1040 ------- 4 8.0 9.0 8 59
r 2.029779 7 4 ack 40 ------- 3 7.0 2.0 5 49
+ 2.029779 4 3 ack 40 ------- 3 7.0 2.0 5 49
- 2.029779 4 3 ack 40 ------- 3 7.0 2.0 5 49
r 2.031196 4 3 ack 40 ------- 1 5.0 0.0 3 45
+ 2.031196 3 0 ack 40 ------- 1 5.0 0.0 3 45
- 2.031196 3 0 ack 40 ------- 1 5.0 0.0 3 45
r 2.032176 6 4 ack 40 ------- 2 6.0 1.0 6 50
+ 2.032176 4 3 ack 40 ------- 2 6.0 1.0 6 50
- 2.032176 4 3 ack 40 ------- 2 6.0 1.0 6 50
r 2.032259 9 4 ack 40 ------- 4 9.0 8.0 6 51
+ 2.032259 4 3 ack 40 ------- 4 9.0 8.0 6 51
- 2.032259 4 3 ack 40 ------- 4 9.0 8.0 6 51
r 2.038182 4 3 ack 40 ------- 3 7.0 2.0 4 46
+ 2.038182 3 2 ack 40 ------- 3 7.0 2.0 4 46
- 2.038182 3 2 ack 40 ------- 3 7.0 2.0 4 46
r 2.040579 4 3 ack 40 ------- 2 6.0 1.0 5 47
+ 2.040579 3 1 ack 40 ------- 2 6.0 1.0 5 47
- 2.040579 3 1 ack 40 ------- 2 6.0 1.0 5 47
r 2.040662 4 3 ack 40 ------- 4 9.0 8.0 5 48
+ 2.040662 3 8 ack 40 ------- 4 9.0 8.0 5 48
- 2.040662 3 8 ack 40 ------- 4 9.0 8.0 5 48
r 2.042793 5 4 ack 40 ------- 1 5.0 0.0 4 52
+ 2.042793 4 3 ack 40 ------- 1 5.0 0.0 4 52
- 2.042793 4 3 ack 40 ------- 1 5.0 0.0 4 52
r 2.046902 3 2 ack 40 ------- 3 7.0 2.0 3 42
+ 2.046902 2 3 exp 1040 ------- 3 2.0 7.0 0 60
- 2.046902 2 3 exp 1040 ------- 3 2.0 7.0 0 60
+ 2.046902 2 3 exp 1040 ------- 3 2.0 7.0 0 61
r 2.049299 3 1 ack 40 ------- 2 6.0 1.0 4 43
+ 2.049299 1 3 tcp 1040 ------- 2 1.0 6.0 9 62
- 2.049299 1 3 tcp 1040 ------- 2 1.0 6.0 9 62
+ 2.049299 1 3 tcp 1040 ------- 2 1.0 6.0 10 63
r 2.049382 3 8 ack 40 ------- 4 9.0 8.0 4 44
+ 2.049382 8 3 tcp 1040 ------- 4 8.0 9.0 9 64
- 2.049382 8 3 tcp 1040 ------- 4 8.0 9.0 9 64
+ 2.049382 8 3 tcp 1040 ------- 4 8.0 9.0 10 65
- 2.055222 2 3 exp 1040 ------- 3 2.0 7.0 0 61
- 2.057619 1 3 tcp 1040 ------- 2 1.0 6.0 10 63
- 2.057702 8 3 tcp 1040 ------- 4 8.0 9.0 10 65
r 2.066019 1 3 tcp 1040 ------- 2 1.0 6.0 7 56
+ 2.066019 3 4 tcp 1040 ------- 2 1.0 6.0 7 56
- 2.066019 3 4 tcp 1040 ------- 2 1.0 6.0 7 56
r 2.066102 8 3 tcp 1040 ------- 4 8.0 9.0 7 58
+ 2.066102 3 4 tcp 1040 ------- 4 8.0 9.0 7 58
- 2.066102 3 4 tcp 1040 ------- 4 8.0 9.0 7 58
r 2.071379 7 4 ack 40 ------- 3 7.0 2.0 6 53
+ 2.071379 4 3 ack 40 ------- 3 7.0 2.0 6 53
- 2.071379 4 3 ack 40 ------- 3 7.0 2.0 6 53
r 2.074339 1 3 tcp 1040 ------- 2 1.0 6.0 8 57
+ 2.074339 3 4 tcp 1040 ------- 2 1.0 6.0 8 57
- 2.074339 3 4 tcp 1040 ------- 2 1.0 6.0 8 57
r 2.074422 8 3 tcp 1040 ------- 4 8.0 9.0 8 59
+ 2.074422 3 4 tcp 1040 ------- 4 8.0 9.0 8 59
- 2.074422 3 4 tcp 1040 ------- 4 8.0 9.0 8 59
r 2.079782 4 3 ack 40 ------- 3 7.0 2.0 5 49
+ 2.079782 3 2 ack 40 ------- 3 7.0 2.0 5 49
- 2.079782 3 2 ack 40 ------- 3 7.0 2.0 5 49
r 2.081516 3 0 ack 40 ------- 1 5.0 0.0 3 45
+ 2.081516 0 3 exp 1540 ------- 1 0.0 5.0 0 66
- 2.081516 0 3 exp 1540 ------- 1 0.0 5.0 0 66
+ 2.081516 0 3 exp 1540 ------- 1 0.0 5.0 0 67
r 2.082179 4 3 ack 40 ------- 2 6.0 1.0 6 50
+ 2.082179 3 1 ack 40 ------- 2 6.0 1.0 6 50
- 2.082179 3 1 ack 40 ------- 2 6.0 1.0 6 50
r 2.082262 4 3 ack 40 ------- 4 9.0 8.0 6 51
+ 2.082262 3 8 ack 40 ------- 4 9.0 8.0 6 51
- 2.082262 3 8 ack 40 ------- 4 9.0 8.0 6 51
r 2.088502 3 2 ack 40 ------- 3 7.0 2.0 4 46
+ 2.088502 2 3 exp 1040 ------- 3 2.0 7.0 0 68
- 2.088502 2 3 exp 1040 ------- 3 2.0 7.0 0 68
+ 2.088502 2 3 exp 1040 ------- 3 2.0 7.0 0 69
r 2.090899 3 1 ack 40 ------- 2 6.0 1.0 5 47
+ 2.090899 1 3 tcp 1040 ------- 2 1.0 6.0 11 70
- 2.090899 1 3 tcp 1040 ------- 2 1.0 6.0 11 70
+ 2.090899 1 3 tcp 1040 ------- 2 1.0 6.0 12 71
r 2.090982 3 8 ack 40 ------- 4 9.0 8.0 5 48
+ 2.090982 8 3 tcp 1040 ------- 4 8.0 9.0 11 72
- 2.090982 8 3 tcp 1040 ------- 4 8.0 9.0 11 72
+ 2.090982 8 3 tcp 1040 ------- 4 8.0 9.0 12 73
r 2.092796 4 3 ack 40 ------- 1 5.0 0.0 4 52
+ 2.092796 3 0 ack 40 ------- 1 5.0 0.0 4 52
- 2.092796 3 0 ack 40 ------- 1 5.0 0.0 4 52
- 2.093836 0 3 exp 1540 ------- 1 0.0 5.0 0 67
- 2.096822 2 3 exp 1040 ------- 3 2.0 7.0 0 69
- 2.099219 1 3 tcp 1040 ------- 2 1.0 6.0 12 71
- 2.099302 8 3 tcp 1040 ------- 4 8.0 9.0 12 73
r 2.104393 5 4 ack 40 ------- 1 5.0 0.0 5 54
+ 2.104393 4 3 ack 40 ------- 1 5.0 0.0 5 54
- 2.104393 4 3 ack 40 ------- 1 5.0 0.0 5 54
r 2.105222 2 3 exp 1040 ------- 3 2.0 7.0 0 60
+ 2.105222 3 4 exp 1040 ------- 3 2.0 7.0 0 60
- 2.105222 3 4 exp 1040 ------- 3 2.0 7.0 0 60
r 2.107619 1 3 tcp 1040 ------- 2 1.0 6.0 9 62
+ 2.107619 3 4 tcp 1040 ------- 2 1.0 6.0 9 62
- 2.107619 3 4 tcp 1040 ------- 2 1.0 6.0 9 62
r 2.107702 8 3 tcp 1040 ------- 4 8.0 9.0 9 64
+ 2.107702 3 4 tcp 1040 ------- 4 8.0 9.0 9 64
- 2.107702 3 4 tcp 1040 ------- 4 8.0 9.0 9 64
r 2.113542 2 3 exp 1040 ------- 3 2.0 7.0 0 61
+ 2.113542 3 4 exp 1040 ------- 3 2.0 7.0 0 61
- 2.113542 3 4 exp 1040 ------- 3 2.0 7.0 0 61
r 2.115939 1 3 tcp 1040 ------- 2 1.0 6.0 10 63
+ 2.115939 3 4 tcp 1040 ------- 2 1.0 6.0 10 63
- 2.115939 3 4 tcp 1040 ------- 2 1.0 6.0 10 63
r 2.116022 8 3 tcp 1040 ------- 4 8.0 9.0 10 65
+ 2.116022 3 4 tcp 1040 ------- 4 8.0 9.0 10 65
- 2.116022 3 4 tcp 1040 ------- 4 8.0 9.0 10 65
r 2.116102 3 4 tcp 1040 ------- 2 1.0 6.0 7 56
+ 2.116102 4 6 tcp 1040 ------- 2 1.0 6.0 7 56
- 2.116102 4 6 tcp 1040 ------- 2 1.0 6.0 7 56
r 2.116186 3 4 tcp 1040 ------- 4 8.0 9.0 7 58
+ 2.116186 4 9 tcp 1040 ------- 4 8.0 9.0 7 58
- 2.116186 4 9 tcp 1040 ------- 4 8.0 9.0 7 58
r 2.121382 4 3 ack 40 ------- 3 7.0 2.0 6 53
+ 2.121382 3 2 ack 40 ------- 3 7.0 2.0 6 53
- 2.121382 3 2 ack 40 ------- 3 7.0 2.0 6 53
r 2.124422 3 4 tcp 1040 ------- 2 1.0 6.0 8 57
+ 2.124422 4 6 tcp 1040 ------- 2 1.0 6.0 8 57
r 2.124506 3 4 tcp 1040 ------- 4 8.0 9.0 8 59
+ 2.124506 4 9 tcp 1040 ------- 4 8.0 9.0 8 59
r 2.130102 3 2 ack 40 ------- 3 7.0 2.0 5 49
+ 2.130102 2 3 exp 1040 ------- 3 2.0 7.0 0 74
- 2.130102 2 3 exp 1040 ------- 3 2.0 7.0 0 74
+ 2.130102 2 3 exp 1040 ------- 3 2.0 7.0 0 75
r 2.132499 3 1 ack 40 ------- 2 6.0 1.0 6 50
+ 2.132499 1 3 tcp 1040 ------- 2 1.0 6.0 13 76
- 2.132499 1 3 tcp 1040 ------- 2 1.0 6.0 13 76
+ 2.132499 1 3 tcp 1040 ------- 2 1.0 6.0 14 77
r 2.132582 3 8 ack 40 ------- 4 9.0 8.0 6 51
+ 2.132582 8 3 tcp 1040 ------- 4 8.0 9.0 13 78
- 2.132582 8 3 tcp 1040 ------- 4 8.0 9.0 13 78
+ 2.132582 8 3 tcp 1040 ------- 4 8.0 9.0 14 79
- 2.138422 2 3 exp 1040 ------- 3 2.0 7.0 0 75
- 2.140819 1 3 tcp 1040 ------- 2 1.0 6.0 14 77
- 2.140902 8 3 tcp 1040 ------- 4 8.0 9.0 14 79
r 2.143116 3 0 ack 40 ------- 1 5.0 0.0 4 52
+ 2.143116 0 3 exp 1540 ------- 1 0.0 5.0 0 80
- 2.143116 0 3 exp 1540 ------- 1 0.0 5.0 0 80
+ 2.143116 0 3 exp 1540 ------- 1 0.0 5.0 0 81
r 2.143836 0 3 exp 1540 ------- 1 0.0 5.0 0 66
+ 2.143836 3 4 exp 1540 ------- 1 0.0 5.0 0 66
- 2.143836 3 4 exp 1540 ------- 1 0.0 5.0 0 66
r 2.146822 2 3 exp 1040 ------- 3 2.0 7.0 0 68
+ 2.146822 3 4 exp 1040 ------- 3 2.0 7.0 0 68
- 2.146822 3 4 exp 1040 ------- 3 2.0 7.0 0 68
r 2.149219 1 3 tcp 1040 ------- 2 1.0 6.0 11 70
+ 2.149219 3 4 tcp 1040 ------- 2 1.0 6.0 11 70
- 2.149219 3 4 tcp 1040 ------- 2 1.0 6.0 11 70
r 2.149302 8 3 tcp 1040 ------- 4 8.0 9.0 11 72
+ 2.149302 3 4 tcp 1040 ------- 4 8.0 9.0 11 72
- 2.149302 3 4 tcp 1040 ------- 4 8.0 9.0 11 72
r 2.154396 4 3 ack 40 ------- 1 5.0 0.0 5 54
+ 2.154396 3 0 ack 40 ------- 1 5.0 0.0 5 54
- 2.154396 3 0 ack 40 ------- 1 5.0 0.0 5 54
r 2.155142 2 3 exp 1040 ------- 3 2.0 7.0 0 69
+ 2.155142 3 4 exp 1040 ------- 3 2.0 7.0 0 69
- 2.155142 3 4 exp 1040 ------- 3 2.0 7.0 0 69
r 2.155305 3 4 exp 1040 ------- 3 2.0 7.0 0 60
+ 2.155305 4 7 exp 1040 ------- 3 2.0 7.0 0 60
- 2.155305 4 7 exp 1040 ------- 3 2.0 7.0 0 60
- 2.155436 0 3 exp 1540 ------- 1 0.0 5.0 0 81
r 2.156156 0 3 exp 1540 ------- 1 0.0 5.0 0 67
+ 2.156156 3 4 exp 1540 ------- 1 0.0 5.0 0 67
- 2.156156 3 4 exp 1540 ------- 1 0.0 5.0 0 67
r 2.157539 1 3 tcp 1040 ------- 2 1.0 6.0 12 71
+ 2.157539 3 4 tcp 1040 ------- 2 1.0 6.0 12 71
- 2.157539 3 4 tcp 1040 ------- 2 1.0 6.0 12 71
r 2.157622 8 3 tcp 1040 ------- 4 8.0 9.0 12 73
+ 2.157622 3 4 tcp 1040 ------- 4 8.0 9.0 12 73
- 2.157622 3 4 tcp 1040 ------- 4 8.0 9.0 12 73
- 2.157702 4 6 tcp 1040 ------- 2 1.0 6.0 8 57
r 2.157702 3 4 tcp 1040 ------- 2 1.0 6.0 9 62
+ 2.157702 4 6 tcp 1040 ------- 2 1.0 6.0 9 62
- 2.157786 4 9 tcp 1040 ------- 4 8.0 9.0 8 59
r 2.157786 3 4 tcp 1040 ------- 4 8.0 9.0 9 64
+ 2.157786 4 9 tcp 1040 ------- 4 8.0 9.0 9 64
r 2.163625 3 4 exp 1040 ------- 3 2.0 7.0 0 61
+ 2.163625 4 7 exp 1040 ------- 3 2.0 7.0 0 61
r 2.165993 5 4 ack 40 ------- 1 5.0 0.0 6 55
+ 2.165993 4 3 ack 40 ------- 1 5.0 0.0 6 55
- 2.165993 4 3 ack 40 ------- 1 5.0 0.0 6 55
r 2.166022 3 4 tcp 1040 ------- 2 1.0 6.0 10 63
+ 2.166022 4 6 tcp 1040 ------- 2 1.0 6.0 10 63
r 2.166106 3 4 tcp 1040 ------- 4 8.0 9.0 10 65
+ 2.166106 4 9 tcp 1040 ------- 4 8.0 9.0 10 65
r 2.171702 3 2 ack 40 ------- 3 7.0 2.0 6 53
+ 2.171702 2 3 exp 1040 ------- 3 2.0 7.0 0 82
- 2.171702 2 3 exp 1040 ------- 3 2.0 7.0 0 82
+ 2.171702 2 3 exp 1040 ------- 3 2.0 7.0 0 83
- 2.180022 2 3 exp 1040 ------- 3 2.0 7.0 0 83
r 2.188422 2 3 exp 1040 ------- 3 2.0 7.0 0 74
+ 2.188422 3 4 exp 1040 ------- 3 2.0 7.0 0 74
- 2.188422 3 4 exp 1040 ------- 3 2.0 7.0 0 74
r 2.190819 1 3 tcp 1040 ------- 2 1.0 6.0 13 76
+ 2.190819 3 4 tcp 1040 ------- 2 1.0 6.0 13 76
- 2.190819 3 4 tcp 1040 ------- 2 1.0 6.0 13 76
r 2.190902 8 3 tcp 1040 ------- 4 8.0 9.0 13 78
+ 2.190902 3 4 tcp 1040 ------- 4 8.0 9.0 13 78
- 2.190902 3 4 tcp 1040 ------- 4 8.0 9.0 13 78
r 2.193959 3 4 exp 1540 ------- 1 0.0 5.0 0 66
+ 2.193959 4 5 exp 1540 ------- 1 0.0 5.0 0 66
- 2.193959 4 5 exp 1540 ------- 1 0.0 5.0 0 66
r 2.196742 2 3 exp 1040 ------- 3 2.0 7.0 0 75
+ 2.196742 3 4 exp 1040 ------- 3 2.0 7.0 0 75
- 2.196742 3 4 exp 1040 ------- 3 2.0 7.0 0 75
- 2.196905 4 7 exp 1040 ------- 3 2.0 7.0 0 61
r 2.196905 3 4 exp 1040 ------- 3 2.0 7.0 0 68
+ 2.196905 4 7 exp 1040 ------- 3 2.0 7.0 0 68
r 2.199139 1 3 tcp 1040 ------- 2 1.0 6.0 14 77