+ 0.1 0 4 tcp 40 ------- 1 0.0 8.0 0 0
- 0.1 0 4 tcp 40 ------- 1 0.0 8.0 0 0
+ 0.1 3 0 tcp 40 ------- 4 3.0 5.0 0 1
- 0.1 3 0 tcp 40 ------- 4 3.0 5.0 0 1
+ 0.125737 2 4 exp 40 ------- 3 2.0 6.0 0 2
- 0.125737 2 4 exp 40 ------- 3 2.0 6.0 0 2
+ 0.139203 1 0 exp 40 ------- 2 1.0 7.0 0 3
- 0.139203 1 0 exp 40 ------- 2 1.0 7.0 0 3
r 0.189523 1 0 exp 40 ------- 2 1.0 7.0 0 3
+ 0.189523 0 3 exp 40 ------- 2 1.0 7.0 0 3
- 0.189523 0 3 exp 40 ------- 2 1.0 7.0 0 3
r 0.200064 3 0 tcp 40 ------- 4 3.0 5.0 0 1
+ 0.200064 0 1 tcp 40 ------- 4 3.0 5.0 0 1
- 0.200064 0 1 tcp 40 ------- 4 3.0 5.0 0 1
r 0.250384 0 1 tcp 40 ------- 4 3.0 5.0 0 1
+ 0.250384 1 2 tcp 40 ------- 4 3.0 5.0 0 1
- 0.250384 1 2 tcp 40 ------- 4 3.0 5.0 0 1
r 0.289587 0 3 exp 40 ------- 2 1.0 7.0 0 3
+ 0.289587 3 6 exp 40 ------- 2 1.0 7.0 0 3
- 0.289587 3 6 exp 40 ------- 2 1.0 7.0 0 3
r 0.300704 1 2 tcp 40 ------- 4 3.0 5.0 0 1
+ 0.300704 2 5 tcp 40 ------- 4 3.0 5.0 0 1
- 0.300704 2 5 tcp 40 ------- 4 3.0 5.0 0 1
r 0.3016 0 4 tcp 40 ------- 1 0.0 8.0 0 0
+ 0.3016 4 8 tcp 40 ------- 1 0.0 8.0 0 0
- 0.3016 4 8 tcp 40 ------- 1 0.0 8.0 0 0
r 0.327337 2 4 exp 40 ------- 3 2.0 6.0 0 2
+ 0.327337 4 6 exp 40 ------- 3 2.0 6.0 0 2
- 0.327337 4 6 exp 40 ------- 3 2.0 6.0 0 2
r 0.389651 3 6 exp 40 ------- 2 1.0 7.0 0 3
+ 0.389651 6 7 exp 40 ------- 2 1.0 7.0 0 3
- 0.389651 6 7 exp 40 ------- 2 1.0 7.0 0 3
r 0.400768 2 5 tcp 40 ------- 4 3.0 5.0 0 1
+ 0.400768 5 2 ack 40 ------- 4 5.0 3.0 0 4
- 0.400768 5 2 ack 40 ------- 4 5.0 3.0 0 4
r 0.439971 6 7 exp 40 ------- 2 1.0 7.0 0 3
+ 0.439971 7 6 ack 40 ------- 2 7.0 1.0 0 5
- 0.439971 7 6 ack 40 ------- 2 7.0 1.0 0 5
r 0.490291 7 6 ack 40 ------- 2 7.0 1.0 0 5
+ 0.490291 6 3 ack 40 ------- 2 7.0 1.0 0 5
- 0.490291 6 3 ack 40 ------- 2 7.0 1.0 0 5
r 0.500832 5 2 ack 40 ------- 4 5.0 3.0 0 4
+ 0.500832 2 1 ack 40 ------- 4 5.0 3.0 0 4
- 0.500832 2 1 ack 40 ------- 4 5.0 3.0 0 4
r 0.5032 4 8 tcp 40 ------- 1 0.0 8.0 0 0
+ 0.5032 8 4 ack 40 ------- 1 8.0 0.0 0 6
- 0.5032 8 4 ack 40 ------- 1 8.0 0.0 0 6
r 0.528937 4 6 exp 40 ------- 3 2.0 6.0 0 2
+ 0.528937 6 4 ack 40 ------- 3 6.0 2.0 0 7
- 0.528937 6 4 ack 40 ------- 3 6.0 2.0 0 7
r 0.551152 2 1 ack 40 ------- 4 5.0 3.0 0 4
+ 0.551152 1 0 ack 40 ------- 4 5.0 3.0 0 4
- 0.551152 1 0 ack 40 ------- 4 5.0 3.0 0 4
r 0.590355 6 3 ack 40 ------- 2 7.0 1.0 0 5
+ 0.590355 3 0 ack 40 ------- 2 7.0 1.0 0 5
- 0.590355 3 0 ack 40 ------- 2 7.0 1.0 0 5
r 0.601472 1 0 ack 40 ------- 4 5.0 3.0 0 4
+ 0.601472 0 3 ack 40 ------- 4 5.0 3.0 0 4
- 0.601472 0 3 ack 40 ------- 4 5.0 3.0 0 4
r 0.690419 3 0 ack 40 ------- 2 7.0 1.0 0 5
+ 0.690419 0 1 ack 40 ------- 2 7.0 1.0 0 5
- 0.690419 0 1 ack 40 ------- 2 7.0 1.0 0 5
r 0.701536 0 3 ack 40 ------- 4 5.0 3.0 0 4
+ 0.701536 3 0 tcp 1040 ------- 4 3.0 5.0 1 8
- 0.701536 3 0 tcp 1040 ------- 4 3.0 5.0 1 8
+ 0.701536 3 0 tcp 1040 ------- 4 3.0 5.0 2 9
- 0.7032 3 0 tcp 1040 ------- 4 3.0 5.0 2 9
r 0.7048 8 4 ack 40 ------- 1 8.0 0.0 0 6
+ 0.7048 4 0 ack 40 ------- 1 8.0 0.0 0 6
- 0.7048 4 0 ack 40 ------- 1 8.0 0.0 0 6
r 0.730537 6 4 ack 40 ------- 3 6.0 2.0 0 7
+ 0.730537 4 2 ack 40 ------- 3 6.0 2.0 0 7
- 0.730537 4 2 ack 40 ------- 3 6.0 2.0 0 7
r 0.740739 0 1 ack 40 ------- 2 7.0 1.0 0 5
+ 0.740739 1 0 exp 1040 ------- 2 1.0 7.0 0 10
- 0.740739 1 0 exp 1040 ------- 2 1.0 7.0 0 10
+ 0.740739 1 0 exp 1040 ------- 2 1.0 7.0 0 11
- 0.749059 1 0 exp 1040 ------- 2 1.0 7.0 0 11
r 0.799059 1 0 exp 1040 ------- 2 1.0 7.0 0 10
+ 0.799059 0 3 exp 1040 ------- 2 1.0 7.0 0 10
- 0.799059 0 3 exp 1040 ------- 2 1.0 7.0 0 10
r 0.8032 3 0 tcp 1040 ------- 4 3.0 5.0 1 8
+ 0.8032 0 1 tcp 1040 ------- 4 3.0 5.0 1 8
- 0.8032 0 1 tcp 1040 ------- 4 3.0 5.0 1 8
r 0.804864 3 0 tcp 1040 ------- 4 3.0 5.0 2 9
+ 0.804864 0 1 tcp 1040 ------- 4 3.0 5.0 2 9
r 0.807379 1 0 exp 1040 ------- 2 1.0 7.0 0 11
+ 0.807379 0 3 exp 1040 ------- 2 1.0 7.0 0 11
- 0.807379 0 3 exp 1040 ------- 2 1.0 7.0 0 11
- 0.81152 0 1 tcp 1040 ------- 4 3.0 5.0 2 9
r 0.86152 0 1 tcp 1040 ------- 4 3.0 5.0 1 8
+ 0.86152 1 2 tcp 1040 ------- 4 3.0 5.0 1 8
- 0.86152 1 2 tcp 1040 ------- 4 3.0 5.0 1 8
r 0.86984 0 1 tcp 1040 ------- 4 3.0 5.0 2 9
+ 0.86984 1 2 tcp 1040 ------- 4 3.0 5.0 2 9
- 0.86984 1 2 tcp 1040 ------- 4 3.0 5.0 2 9
r 0.900723 0 3 exp 1040 ------- 2 1.0 7.0 0 10
+ 0.900723 3 6 exp 1040 ------- 2 1.0 7.0 0 10
- 0.900723 3 6 exp 1040 ------- 2 1.0 7.0 0 10
r 0.9064 4 0 ack 40 ------- 1 8.0 0.0 0 6
+ 0.9064 0 4 tcp 1540 ------- 1 0.0 8.0 1 12
- 0.9064 0 4 tcp 1540 ------- 1 0.0 8.0 1 12
+ 0.9064 0 4 tcp 1540 ------- 1 0.0 8.0 2 13
r 0.909043 0 3 exp 1040 ------- 2 1.0 7.0 0 11
+ 0.909043 3 6 exp 1040 ------- 2 1.0 7.0 0 11
- 0.909043 3 6 exp 1040 ------- 2 1.0 7.0 0 11
r 0.91984 1 2 tcp 1040 ------- 4 3.0 5.0 1 8
+ 0.91984 2 5 tcp 1040 ------- 4 3.0 5.0 1 8
- 0.91984 2 5 tcp 1040 ------- 4 3.0 5.0 1 8
r 0.92816 1 2 tcp 1040 ------- 4 3.0 5.0 2 9
+ 0.92816 2 5 tcp 1040 ------- 4 3.0 5.0 2 9
- 0.92816 2 5 tcp 1040 ------- 4 3.0 5.0 2 9
r 0.932137 4 2 ack 40 ------- 3 6.0 2.0 0 7
+ 0.932137 2 4 exp 1040 ------- 3 2.0 6.0 0 14
- 0.932137 2 4 exp 1040 ------- 3 2.0 6.0 0 14
+ 0.932137 2 4 exp 1040 ------- 3 2.0 6.0 0 15
- 0.968 0 4 tcp 1540 ------- 1 0.0 8.0 2 13
- 0.973737 2 4 exp 1040 ------- 3 2.0 6.0 0 15
r 1.002387 3 6 exp 1040 ------- 2 1.0 7.0 0 10
+ 1.002387 6 7 exp 1040 ------- 2 1.0 7.0 0 10
- 1.002387 6 7 exp 1040 ------- 2 1.0 7.0 0 10
r 1.010707 3 6 exp 1040 ------- 2 1.0 7.0 0 11
+ 1.010707 6 7 exp 1040 ------- 2 1.0 7.0 0 11
- 1.010707 6 7 exp 1040 ------- 2 1.0 7.0 0 11
r 1.021504 2 5 tcp 1040 ------- 4 3.0 5.0 1 8
+ 1.021504 5 2 ack 40 ------- 4 5.0 3.0 1 16
- 1.021504 5 2 ack 40 ------- 4 5.0 3.0 1 16
r 1.029824 2 5 tcp 1040 ------- 4 3.0 5.0 2 9
+ 1.029824 5 2 ack 40 ------- 4 5.0 3.0 2 17
- 1.029824 5 2 ack 40 ------- 4 5.0 3.0 2 17
r 1.060707 6 7 exp 1040 ------- 2 1.0 7.0 0 10
+ 1.060707 7 6 ack 40 ------- 2 7.0 1.0 1 18
- 1.060707 7 6 ack 40 ------- 2 7.0 1.0 1 18
r 1.069027 6 7 exp 1040 ------- 2 1.0 7.0 0 11
+ 1.069027 7 6 ack 40 ------- 2 7.0 1.0 2 19
- 1.069027 7 6 ack 40 ------- 2 7.0 1.0 2 19
r 1.111027 7 6 ack 40 ------- 2 7.0 1.0 1 18
+ 1.111027 6 3 ack 40 ------- 2 7.0 1.0 1 18
- 1.111027 6 3 ack 40 ------- 2 7.0 1.0 1 18
r 1.119347 7 6 ack 40 ------- 2 7.0 1.0 2 19
+ 1.119347 6 3 ack 40 ------- 2 7.0 1.0 2 19
- 1.119347 6 3 ack 40 ------- 2 7.0 1.0 2 19
r 1.121568 5 2 ack 40 ------- 4 5.0 3.0 1 16
+ 1.121568 2 1 ack 40 ------- 4 5.0 3.0 1 16
- 1.121568 2 1 ack 40 ------- 4 5.0 3.0 1 16
r 1.129888 5 2 ack 40 ------- 4 5.0 3.0 2 17
+ 1.129888 2 1 ack 40 ------- 4 5.0 3.0 2 17
- 1.129888 2 1 ack 40 ------- 4 5.0 3.0 2 17
r 1.168 0 4 tcp 1540 ------- 1 0.0 8.0 1 12
+ 1.168 4 8 tcp 1540 ------- 1 0.0 8.0 1 12
- 1.168 4 8 tcp 1540 ------- 1 0.0 8.0 1 12
r 1.171888 2 1 ack 40 ------- 4 5.0 3.0 1 16
+ 1.171888 1 0 ack 40 ------- 4 5.0 3.0 1 16
- 1.171888 1 0 ack 40 ------- 4 5.0 3.0 1 16
r 1.173737 2 4 exp 1040 ------- 3 2.0 6.0 0 14
+ 1.173737 4 6 exp 1040 ------- 3 2.0 6.0 0 14
- 1.173737 4 6 exp 1040 ------- 3 2.0 6.0 0 14
r 1.180208 2 1 ack 40 ------- 4 5.0 3.0 2 17
+ 1.180208 1 0 ack 40 ------- 4 5.0 3.0 2 17
- 1.180208 1 0 ack 40 ------- 4 5.0 3.0 2 17
r 1.211091 6 3 ack 40 ------- 2 7.0 1.0 1 18
+ 1.211091 3 0 ack 40 ------- 2 7.0 1.0 1 18
- 1.211091 3 0 ack 40 ------- 2 7.0 1.0 1 18
r 1.215337 2 4 exp 1040 ------- 3 2.0 6.0 0 15
+ 1.215337 4 6 exp 1040 ------- 3 2.0 6.0 0 15
- 1.215337 4 6 exp 1040 ------- 3 2.0 6.0 0 15
r 1.219411 6 3 ack 40 ------- 2 7.0 1.0 2 19
+ 1.219411 3 0 ack 40 ------- 2 7.0 1.0 2 19
- 1.219411 3 0 ack 40 ------- 2 7.0 1.0 2 19
r 1.222208 1 0 ack 40 ------- 4 5.0 3.0 1 16
+ 1.222208 0 3 ack 40 ------- 4 5.0 3.0 1 16
- 1.222208 0 3 ack 40 ------- 4 5.0 3.0 1 16
r 1.2296 0 4 tcp 1540 ------- 1 0.0 8.0 2 13
+ 1.2296 4 8 tcp 1540 ------- 1 0.0 8.0 2 13
- 1.2296 4 8 tcp 1540 ------- 1 0.0 8.0 2 13
r 1.230528 1 0 ack 40 ------- 4 5.0 3.0 2 17
+ 1.230528 0 3 ack 40 ------- 4 5.0 3.0 2 17
- 1.230528 0 3 ack 40 ------- 4 5.0 3.0 2 17
r 1.311155 3 0 ack 40 ------- 2 7.0 1.0 1 18
+ 1.311155 0 1 ack 40 ------- 2 7.0 1.0 1 18
- 1.311155 0 1 ack 40 ------- 2 7.0 1.0 1 18
r 1.319475 3 0 ack 40 ------- 2 7.0 1.0 2 19
+ 1.319475 0 1 ack 40 ------- 2 7.0 1.0 2 19
- 1.319475 0 1 ack 40 ------- 2 7.0 1.0 2 19
r 1.322272 0 3 ack 40 ------- 4 5.0 3.0 1 16
+ 1.322272 3 0 tcp 1040 ------- 4 3.0 5.0 3 20
- 1.322272 3 0 tcp 1040 ------- 4 3.0 5.0 3 20
+ 1.322272 3 0 tcp 1040 ------- 4 3.0 5.0 4 21
- 1.323936 3 0 tcp 1040 ------- 4 3.0 5.0 4 21
r 1.330592 0 3 ack 40 ------- 4 5.0 3.0 2 17
+ 1.330592 3 0 tcp 1040 ------- 4 3.0 5.0 5 22
- 1.330592 3 0 tcp 1040 ------- 4 3.0 5.0 5 22
+ 1.330592 3 0 tcp 1040 ------- 4 3.0 5.0 6 23
- 1.332256 3 0 tcp 1040 ------- 4 3.0 5.0 6 23
r 1.361475 0 1 ack 40 ------- 2 7.0 1.0 1 18
+ 1.361475 1 0 exp 1040 ------- 2 1.0 7.0 0 24
- 1.361475 1 0 exp 1040 ------- 2 1.0 7.0 0 24
+ 1.361475 1 0 exp 1040 ------- 2 1.0 7.0 0 25
r 1.369795 0 1 ack 40 ------- 2 7.0 1.0 2 19
+ 1.369795 1 0 exp 1040 ------- 2 1.0 7.0 0 26
+ 1.369795 1 0 exp 1040 ------- 2 1.0 7.0 0 27
- 1.369795 1 0 exp 1040 ------- 2 1.0 7.0 0 25
- 1.378115 1 0 exp 1040 ------- 2 1.0 7.0 0 26
- 1.386435 1 0 exp 1040 ------- 2 1.0 7.0 0 27
r 1.415337 4 6 exp 1040 ------- 3 2.0 6.0 0 14
+ 1.415337 6 4 ack 40 ------- 3 6.0 2.0 1 28
- 1.415337 6 4 ack 40 ------- 3 6.0 2.0 1 28
r 1.419795 1 0 exp 1040 ------- 2 1.0 7.0 0 24
+ 1.419795 0 3 exp 1040 ------- 2 1.0 7.0 0 24
- 1.419795 0 3 exp 1040 ------- 2 1.0 7.0 0 24
r 1.423936 3 0 tcp 1040 ------- 4 3.0 5.0 3 20
+ 1.423936 0 1 tcp 1040 ------- 4 3.0 5.0 3 20
- 1.423936 0 1 tcp 1040 ------- 4 3.0 5.0 3 20
r 1.4256 3 0 tcp 1040 ------- 4 3.0 5.0 4 21
+ 1.4256 0 1 tcp 1040 ------- 4 3.0 5.0 4 21
r 1.428115 1 0 exp 1040 ------- 2 1.0 7.0 0 25
+ 1.428115 0 3 exp 1040 ------- 2 1.0 7.0 0 25
- 1.428115 0 3 exp 1040 ------- 2 1.0 7.0 0 25
r 1.4296 4 8 tcp 1540 ------- 1 0.0 8.0 1 12
+ 1.4296 8 4 ack 40 ------- 1 8.0 0.0 1 29
- 1.4296 8 4 ack 40 ------- 1 8.0 0.0 1 29
r 1.432256 3 0 tcp 1040 ------- 4 3.0 5.0 5 22
+ 1.432256 0 1 tcp 1040 ------- 4 3.0 5.0 5 22
- 1.432256 0 1 tcp 1040 ------- 4 3.0 5.0 4 21
r 1.43392 3 0 tcp 1040 ------- 4 3.0 5.0 6 23
+ 1.43392 0 1 tcp 1040 ------- 4 3.0 5.0 6 23
r 1.436435 1 0 exp 1040 ------- 2 1.0 7.0 0 26
+ 1.436435 0 3 exp 1040 ------- 2 1.0 7.0 0 26
- 1.436435 0 3 exp 1040 ------- 2 1.0 7.0 0 26
- 1.440576 0 1 tcp 1040 ------- 4 3.0 5.0 5 22
r 1.444755 1 0 exp 1040 ------- 2 1.0 7.0 0 27
+ 1.444755 0 3 exp 1040 ------- 2 1.0 7.0 0 27
- 1.444755 0 3 exp 1040 ------- 2 1.0 7.0 0 27
- 1.448896 0 1 tcp 1040 ------- 4 3.0 5.0 6 23
r 1.456937 4 6 exp 1040 ------- 3 2.0 6.0 0 15
+ 1.456937 6 4 ack 40 ------- 3 6.0 2.0 2 30
- 1.456937 6 4 ack 40 ------- 3 6.0 2.0 2 30
r 1.482256 0 1 tcp 1040 ------- 4 3.0 5.0 3 20
+ 1.482256 1 2 tcp 1040 ------- 4 3.0 5.0 3 20
- 1.482256 1 2 tcp 1040 ------- 4 3.0 5.0 3 20
r 1.490576 0 1 tcp 1040 ------- 4 3.0 5.0 4 21
+ 1.490576 1 2 tcp 1040 ------- 4 3.0 5.0 4 21
- 1.490576 1 2 tcp 1040 ------- 4 3.0 5.0 4 21
r 1.4912 4 8 tcp 1540 ------- 1 0.0 8.0 2 13
+ 1.4912 8 4 ack 40 ------- 1 8.0 0.0 2 31
- 1.4912 8 4 ack 40 ------- 1 8.0 0.0 2 31
r 1.498896 0 1 tcp 1040 ------- 4 3.0 5.0 5 22
+ 1.498896 1 2 tcp 1040 ------- 4 3.0 5.0 5 22
- 1.498896 1 2 tcp 1040 ------- 4 3.0 5.0 5 22
r 1.507216 0 1 tcp 1040 ------- 4 3.0 5.0 6 23
+ 1.507216 1 2 tcp 1040 ------- 4 3.0 5.0 6 23
- 1.507216 1 2 tcp 1040 ------- 4 3.0 5.0 6 23
r 1.521459 0 3 exp 1040 ------- 2 1.0 7.0 0 24
+ 1.521459 3 6 exp 1040 ------- 2 1.0 7.0 0 24
- 1.521459 3 6 exp 1040 ------- 2 1.0 7.0 0 24
r 1.529779 0 3 exp 1040 ------- 2 1.0 7.0 0 25
+ 1.529779 3 6 exp 1040 ------- 2 1.0 7.0 0 25
- 1.529779 3 6 exp 1040 ------- 2 1.0 7.0 0 25
r 1.538099 0 3 exp 1040 ------- 2 1.0 7.0 0 26
+ 1.538099 3 6 exp 1040 ------- 2 1.0 7.0 0 26
- 1.538099 3 6 exp 1040 ------- 2 1.0 7.0 0 26
r 1.540576 1 2 tcp 1040 ------- 4 3.0 5.0 3 20
+ 1.540576 2 5 tcp 1040 ------- 4 3.0 5.0 3 20
- 1.540576 2 5 tcp 1040 ------- 4 3.0 5.0 3 20
r 1.546419 0 3 exp 1040 ------- 2 1.0 7.0 0 27
+ 1.546419 3 6 exp 1040 ------- 2 1.0 7.0 0 27
- 1.546419 3 6 exp 1040 ------- 2 1.0 7.0 0 27
r 1.548896 1 2 tcp 1040 ------- 4 3.0 5.0 4 21
+ 1.548896 2 5 tcp 1040 ------- 4 3.0 5.0 4 21
- 1.548896 2 5 tcp 1040 ------- 4 3.0 5.0 4 21
r 1.557216 1 2 tcp 1040 ------- 4 3.0 5.0 5 22
+ 1.557216 2 5 tcp 1040 ------- 4 3.0 5.0 5 22
- 1.557216 2 5 tcp 1040 ------- 4 3.0 5.0 5 22
r 1.565536 1 2 tcp 1040 ------- 4 3.0 5.0 6 23
+ 1.565536 2 5 tcp 1040 ------- 4 3.0 5.0 6 23
- 1.565536 2 5 tcp 1040 ------- 4 3.0 5.0 6 23
r 1.616937 6 4 ack 40 ------- 3 6.0 2.0 1 28
+ 1.616937 4 2 ack 40 ------- 3 6.0 2.0 1 28
- 1.616937 4 2 ack 40 ------- 3 6.0 2.0 1 28
r 1.623123 3 6 exp 1040 ------- 2 1.0 7.0 0 24
+ 1.623123 6 7 exp 1040 ------- 2 1.0 7.0 0 24
- 1.623123 6 7 exp 1040 ------- 2 1.0 7.0 0 24
r 1.6312 8 4 ack 40 ------- 1 8.0 0.0 1 29
+ 1.6312 4 0 ack 40 ------- 1 8.0 0.0 1 29
- 1.6312 4 0 ack 40 ------- 1 8.0 0.0 1 29
r 1.631443 3 6 exp 1040 ------- 2 1.0 7.0 0 25
+ 1.631443 6 7 exp 1040 ------- 2 1.0 7.0 0 25
- 1.631443 6 7 exp 1040 ------- 2 1.0 7.0 0 25
r 1.639763 3 6 exp 1040 ------- 2 1.0 7.0 0 26
+ 1.639763 6 7 exp 1040 ------- 2 1.0 7.0 0 26
- 1.639763 6 7 exp 1040 ------- 2 1.0 7.0 0 26
r 1.64224 2 5 tcp 1040 ------- 4 3.0 5.0 3 20
+ 1.64224 5 2 ack 40 ------- 4 5.0 3.0 3 32
- 1.64224 5 2 ack 40 ------- 4 5.0 3.0 3 32
r 1.648083 3 6 exp 1040 ------- 2 1.0 7.0 0 27
+ 1.648083 6 7 exp 1040 ------- 2 1.0 7.0 0 27
- 1.648083 6 7 exp 1040 ------- 2 1.0 7.0 0 27
r 1.65056 2 5 tcp 1040 ------- 4 3.0 5.0 4 21
+ 1.65056 5 2 ack 40 ------- 4 5.0 3.0 4 33
- 1.65056 5 2 ack 40 ------- 4 5.0 3.0 4 33
r 1.658537 6 4 ack 40 ------- 3 6.0 2.0 2 30
+ 1.658537 4 2 ack 40 ------- 3 6.0 2.0 2 30
- 1.658537 4 2 ack 40 ------- 3 6.0 2.0 2 30
r 1.65888 2 5 tcp 1040 ------- 4 3.0 5.0 5 22
+ 1.65888 5 2 ack 40 ------- 4 5.0 3.0 5 34
- 1.65888 5 2 ack 40 ------- 4 5.0 3.0 5 34
r 1.6672 2 5 tcp 1040 ------- 4 3.0 5.0 6 23
+ 1.6672 5 2 ack 40 ------- 4 5.0 3.0 6 35
- 1.6672 5 2 ack 40 ------- 4 5.0 3.0 6 35
r 1.681443 6 7 exp 1040 ------- 2 1.0 7.0 0 24
+ 1.681443 7 6 ack 40 ------- 2 7.0 1.0 3 36
- 1.681443 7 6 ack 40 ------- 2 7.0 1.0 3 36
r 1.689763 6 7 exp 1040 ------- 2 1.0 7.0 0 25
+ 1.689763 7 6 ack 40 ------- 2 7.0 1.0 4 37
- 1.689763 7 6 ack 40 ------- 2 7.0 1.0 4 37
r 1.6928 8 4 ack 40 ------- 1 8.0 0.0 2 31
+ 1.6928 4 0 ack 40 ------- 1 8.0 0.0 2 31
- 1.6928 4 0 ack 40 ------- 1 8.0 0.0 2 31
r 1.698083 6 7 exp 1040 ------- 2 1.0 7.0 0 26
+ 1.698083 7 6 ack 40 ------- 2 7.0 1.0 5 38
- 1.698083 7 6 ack 40 ------- 2 7.0 1.0 5 38
r 1.706403 6 7 exp 1040 ------- 2 1.0 7.0 0 27
+ 1.706403 7 6 ack 40 ------- 2 7.0 1.0 6 39
- 1.706403 7 6 ack 40 ------- 2 7.0 1.0 6 39
r 1.731763 7 6 ack 40 ------- 2 7.0 1.0 3 36
+ 1.731763 6 3 ack 40 ------- 2 7.0 1.0 3 36
- 1.731763 6 3 ack 40 ------- 2 7.0 1.0 3 36
r 1.740083 7 6 ack 40 ------- 2 7.0 1.0 4 37
+ 1.740083 6 3 ack 40 ------- 2 7.0 1.0 4 37
- 1.740083 6 3 ack 40 ------- 2 7.0 1.0 4 37
r 1.742304 5 2 ack 40 ------- 4 5.0 3.0 3 32
+ 1.742304 2 1 ack 40 ------- 4 5.0 3.0 3 32
- 1.742304 2 1 ack 40 ------- 4 5.0 3.0 3 32
r 1.748403 7 6 ack 40 ------- 2 7.0 1.0 5 38
+ 1.748403 6 3 ack 40 ------- 2 7.0 1.0 5 38
- 1.748403 6 3 ack 40 ------- 2 7.0 1.0 5 38
r 1.750624 5 2 ack 40 ------- 4 5.0 3.0 4 33
+ 1.750624 2 1 ack 40 ------- 4 5.0 3.0 4 33
- 1.750624 2 1 ack 40 ------- 4 5.0 3.0 4 33
r 1.756723 7 6 ack 40 ------- 2 7.0 1.0 6 39
+ 1.756723 6 3 ack 40 ------- 2 7.0 1.0 6 39
- 1.756723 6 3 ack 40 ------- 2 7.0 1.0 6 39
r 1.758944 5 2 ack 40 ------- 4 5.0 3.0 5 34
+ 1.758944 2 1 ack 40 ------- 4 5.0 3.0 5 34
- 1.758944 2 1 ack 40 ------- 4 5.0 3.0 5 34
r 1.767264 5 2 ack 40 ------- 4 5.0 3.0 6 35
+ 1.767264 2 1 ack 40 ------- 4 5.0 3.0 6 35
- 1.767264 2 1 ack 40 ------- 4 5.0 3.0 6 35
r 1.792624 2 1 ack 40 ------- 4 5.0 3.0 3 32
+ 1.792624 1 0 ack 40 ------- 4 5.0 3.0 3 32
- 1.792624 1 0 ack 40 ------- 4 5.0 3.0 3 32
r 1.800944 2 1 ack 40 ------- 4 5.0 3.0 4 33
+ 1.800944 1 0 ack 40 ------- 4 5.0 3.0 4 33
- 1.800944 1 0 ack 40 ------- 4 5.0 3.0 4 33
r 1.809264 2 1 ack 40 ------- 4 5.0 3.0 5 34
+ 1.809264 1 0 ack 40 ------- 4 5.0 3.0 5 34
- 1.809264 1 0 ack 40 ------- 4 5.0 3.0 5 34
r 1.817584 2 1 ack 40 ------- 4 5.0 3.0 6 35
+ 1.817584 1 0 ack 40 ------- 4 5.0 3.0 6 35
- 1.817584 1 0 ack 40 ------- 4 5.0 3.0 6 35
r 1.818537 4 2 ack 40 ------- 3 6.0 2.0 1 28
+ 1.818537 2 4 exp 1040 ------- 3 2.0 6.0 0 40
- 1.818537 2 4 exp 1040 ------- 3 2.0 6.0 0 40
+ 1.818537 2 4 exp 1040 ------- 3 2.0 6.0 0 41
r 1.831827 6 3 ack 40 ------- 2 7.0 1.0 3 36
+ 1.831827 3 0 ack 40 ------- 2 7.0 1.0 3 36
- 1.831827 3 0 ack 40 ------- 2 7.0 1.0 3 36
r 1.8328 4 0 ack 40 ------- 1 8.0 0.0 1 29
+ 1.8328 0 4 tcp 1540 ------- 1 0.0 8.0 3 42
- 1.8328 0 4 tcp 1540 ------- 1 0.0 8.0 3 42
+ 1.8328 0 4 tcp 1540 ------- 1 0.0 8.0 4 43
r 1.840147 6 3 ack 40 ------- 2 7.0 1.0 4 37
+ 1.840147 3 0 ack 40 ------- 2 7.0 1.0 4 37
- 1.840147 3 0 ack 40 ------- 2 7.0 1.0 4 37
r 1.842944 1 0 ack 40 ------- 4 5.0 3.0 3 32
+ 1.842944 0 3 ack 40 ------- 4 5.0 3.0 3 32
- 1.842944 0 3 ack 40 ------- 4 5.0 3.0 3 32
r 1.848467 6 3 ack 40 ------- 2 7.0 1.0 5 38
+ 1.848467 3 0 ack 40 ------- 2 7.0 1.0 5 38
- 1.848467 3 0 ack 40 ------- 2 7.0 1.0 5 38
r 1.851264 1 0 ack 40 ------- 4 5.0 3.0 4 33
+ 1.851264 0 3 ack 40 ------- 4 5.0 3.0 4 33
- 1.851264 0 3 ack 40 ------- 4 5.0 3.0 4 33
r 1.856787 6 3 ack 40 ------- 2 7.0 1.0 6 39
+ 1.856787 3 0 ack 40 ------- 2 7.0 1.0 6 39
- 1.856787 3 0 ack 40 ------- 2 7.0 1.0 6 39
r 1.859584 1 0 ack 40 ------- 4 5.0 3.0 5 34
+ 1.859584 0 3 ack 40 ------- 4 5.0 3.0 5 34
- 1.859584 0 3 ack 40 ------- 4 5.0 3.0 5 34
r 1.860137 4 2 ack 40 ------- 3 6.0 2.0 2 30
+ 1.860137 2 4 exp 1040 ------- 3 2.0 6.0 0 44
+ 1.860137 2 4 exp 1040 ------- 3 2.0 6.0 0 45
- 1.860137 2 4 exp 1040 ------- 3 2.0 6.0 0 41
r 1.867904 1 0 ack 40 ------- 4 5.0 3.0 6 35
+ 1.867904 0 3 ack 40 ------- 4 5.0 3.0 6 35
- 1.867904 0 3 ack 40 ------- 4 5.0 3.0 6 35
r 1.8944 4 0 ack 40 ------- 1 8.0 0.0 2 31
+ 1.8944 0 4 tcp 1540 ------- 1 0.0 8.0 5 46
+ 1.8944 0 4 tcp 1540 ------- 1 0.0 8.0 6 47
- 1.8944 0 4 tcp 1540 ------- 1 0.0 8.0 4 43
- 1.901737 2 4 exp 1040 ------- 3 2.0 6.0 0 44
r 1.931891 3 0 ack 40 ------- 2 7.0 1.0 3 36
+ 1.931891 0 1 ack 40 ------- 2 7.0 1.0 3 36
- 1.931891 0 1 ack 40 ------- 2 7.0 1.0 3 36
r 1.940211 3 0 ack 40 ------- 2 7.0 1.0 4 37
+ 1.940211 0 1 ack 40 ------- 2 7.0 1.0 4 37
- 1.940211 0 1 ack 40 ------- 2 7.0 1.0 4 37
r 1.943008 0 3 ack 40 ------- 4 5.0 3.0 3 32
+ 1.943008 3 0 tcp 1040 ------- 4 3.0 5.0 7 48
- 1.943008 3 0 tcp 1040 ------- 4 3.0 5.0 7 48
+ 1.943008 3 0 tcp 1040 ------- 4 3.0 5.0 8 49
- 1.943337 2 4 exp 1040 ------- 3 2.0 6.0 0 45
- 1.944672 3 0 tcp 1040 ------- 4 3.0 5.0 8 49
r 1.948531 3 0 ack 40 ------- 2 7.0 1.0 5 38
+ 1.948531 0 1 ack 40 ------- 2 7.0 1.0 5 38
- 1.948531 0 1 ack 40 ------- 2 7.0 1.0 5 38
r 1.951328 0 3 ack 40 ------- 4 5.0 3.0 4 33
+ 1.951328 3 0 tcp 1040 ------- 4 3.0 5.0 9 50
- 1.951328 3 0 tcp 1040 ------- 4 3.0 5.0 9 50
+ 1.951328 3 0 tcp 1040 ------- 4 3.0 5.0 10 51
- 1.952992 3 0 tcp 1040 ------- 4 3.0 5.0 10 51
- 1.956 0 4 tcp 1540 ------- 1 0.0 8.0 5 46
r 1.956851 3 0 ack 40 ------- 2 7.0 1.0 6 39
+ 1.956851 0 1 ack 40 ------- 2 7.0 1.0 6 39
- 1.956851 0 1 ack 40 ------- 2 7.0 1.0 6 39
r 1.959648 0 3 ack 40 ------- 4 5.0 3.0 5 34
+ 1.959648 3 0 tcp 1040 ------- 4 3.0 5.0 11 52
- 1.959648 3 0 tcp 1040 ------- 4 3.0 5.0 11 52
+ 1.959648 3 0 tcp 1040 ------- 4 3.0 5.0 12 53
- 1.961312 3 0 tcp 1040 ------- 4 3.0 5.0 12 53
r 1.967968 0 3 ack 40 ------- 4 5.0 3.0 6 35
+ 1.967968 3 0 tcp 1040 ------- 4 3.0 5.0 13 54
- 1.967968 3 0 tcp 1040 ------- 4 3.0 5.0 13 54
+ 1.967968 3 0 tcp 1040 ------- 4 3.0 5.0 14 55
- 1.969632 3 0 tcp 1040 ------- 4 3.0 5.0 14 55
r 1.982211 0 1 ack 40 ------- 2 7.0 1.0 3 36
+ 1.982211 1 0 exp 1040 ------- 2 1.0 7.0 0 56
- 1.982211 1 0 exp 1040 ------- 2 1.0 7.0 0 56
+ 1.982211 1 0 exp 1040 ------- 2 1.0 7.0 0 57
r 1.990531 0 1 ack 40 ------- 2 7.0 1.0 4 37
+ 1.990531 1 0 exp 1040 ------- 2 1.0 7.0 0 58
+ 1.990531 1 0 exp 1040 ------- 2 1.0 7.0 0 59
- 1.990531 1 0 exp 1040 ------- 2 1.0 7.0 0 57
r 1.998851 0 1 ack 40 ------- 2 7.0 1.0 5 38
+ 1.998851 1 0 exp 1040 ------- 2 1.0 7.0 0 60
+ 1.998851 1 0 exp 1040 ------- 2 1.0 7.0 0 61
- 1.998851 1 0 exp 1040 ------- 2 1.0 7.0 0 58
r 2.007171 0 1 ack 40 ------- 2 7.0 1.0 6 39
+ 2.007171 1 0 exp 1040 ------- 2 1.0 7.0 0 62
+ 2.007171 1 0 exp 1040 ------- 2 1.0 7.0 0 63
- 2.007171 1 0 exp 1040 ------- 2 1.0 7.0 0 59
- 2.015491 1 0 exp 1040 ------- 2 1.0 7.0 0 60
- 2.0176 0 4 tcp 1540 ------- 1 0.0 8.0 6 47
- 2.023811 1 0 exp 1040 ------- 2 1.0 7.0 0 61
- 2.032131 1 0 exp 1040 ------- 2 1.0 7.0 0 62
- 2.040451 1 0 exp 1040 ------- 2 1.0 7.0 0 63
r 2.040531 1 0 exp 1040 ------- 2 1.0 7.0 0 56
+ 2.040531 0 3 exp 1040 ------- 2 1.0 7.0 0 56
- 2.040531 0 3 exp 1040 ------- 2 1.0 7.0 0 56
r 2.044672 3 0 tcp 1040 ------- 4 3.0 5.0 7 48
+ 2.044672 0 1 tcp 1040 ------- 4 3.0 5.0 7 48
- 2.044672 0 1 tcp 1040 ------- 4 3.0 5.0 7 48
r 2.046336 3 0 tcp 1040 ------- 4 3.0 5.0 8 49
+ 2.046336 0 1 tcp 1040 ------- 4 3.0 5.0 8 49
r 2.048851 1 0 exp 1040 ------- 2 1.0 7.0 0 57
+ 2.048851 0 3 exp 1040 ------- 2 1.0 7.0 0 57
- 2.048851 0 3 exp 1040 ------- 2 1.0 7.0 0 57
- 2.052992 0 1 tcp 1040 ------- 4 3.0 5.0 8 49
r 2.052992 3 0 tcp 1040 ------- 4 3.0 5.0 9 50
+ 2.052992 0 1 tcp 1040 ------- 4 3.0 5.0 9 50
r 2.054656 3 0 tcp 1040 ------- 4 3.0 5.0 10 51
+ 2.054656 0 1 tcp 1040 ------- 4 3.0 5.0 10 51
r 2.057171 1 0 exp 1040 ------- 2 1.0 7.0 0 58
+ 2.057171 0 3 exp 1040 ------- 2 1.0 7.0 0 58
- 2.057171 0 3 exp 1040 ------- 2 1.0 7.0 0 58
r 2.060137 2 4 exp 1040 ------- 3 2.0 6.0 0 40
+ 2.060137 4 6 exp 1040 ------- 3 2.0 6.0 0 40
- 2.060137 4 6 exp 1040 ------- 3 2.0 6.0 0 40
- 2.061312 0 1 tcp 1040 ------- 4 3.0 5.0 9 50
r 2.061312 3 0 tcp 1040 ------- 4 3.0 5.0 11 52
+ 2.061312 0 1 tcp 1040 ------- 4 3.0 5.0 11 52
r 2.062976 3 0 tcp 1040 ------- 4 3.0 5.0 12 53
+ 2.062976 0 1 tcp 1040 ------- 4 3.0 5.0 12 53
r 2.065491 1 0 exp 1040 ------- 2 1.0 7.0 0 59
+ 2.065491 0 3 exp 1040 ------- 2 1.0 7.0 0 59
- 2.065491 0 3 exp 1040 ------- 2 1.0 7.0 0 59
- 2.069632 0 1 tcp 1040 ------- 4 3.0 5.0 10 51
r 2.069632 3 0 tcp 1040 ------- 4 3.0 5.0 13 54
+ 2.069632 0 1 tcp 1040 ------- 4 3.0 5.0 13 54
r 2.071296 3 0 tcp 1040 ------- 4 3.0 5.0 14 55
+ 2.071296 0 1 tcp 1040 ------- 4 3.0 5.0 14 55
r 2.073811 1 0 exp 1040 ------- 2 1.0 7.0 0 60
+ 2.073811 0 3 exp 1040 ------- 2 1.0 7.0 0 60
- 2.073811 0 3 exp 1040 ------- 2 1.0 7.0 0 60
- 2.077952 0 1 tcp 1040 ------- 4 3.0 5.0 11 52
r 2.082131 1 0 exp 1040 ------- 2 1.0 7.0 0 61
+ 2.082131 0 3 exp 1040 ------- 2 1.0 7.0 0 61
- 2.082131 0 3 exp 1040 ------- 2 1.0 7.0 0 61
- 2.086272 0 1 tcp 1040 ------- 4 3.0 5.0 12 53
r 2.090451 1 0 exp 1040 ------- 2 1.0 7.0 0 62
+ 2.090451 0 3 exp 1040 ------- 2 1.0 7.0 0 62
- 2.090451 0 3 exp 1040 ------- 2 1.0 7.0 0 62
r 2.0944 0 4 tcp 1540 ------- 1 0.0 8.0 3 42
+ 2.0944 4 8 tcp 1540 ------- 1 0.0 8.0 3 42
- 2.0944 4 8 tcp 1540 ------- 1 0.0 8.0 3 42
- 2.094592 0 1 tcp 1040 ------- 4 3.0 5.0 13 54
r 2.098771 1 0 exp 1040 ------- 2 1.0 7.0 0 63
+ 2.098771 0 3 exp 1040 ------- 2 1.0 7.0 0 63
- 2.098771 0 3 exp 1040 ------- 2 1.0 7.0 0 63
r 2.101737 2 4 exp 1040 ------- 3 2.0 6.0 0 41
+ 2.101737 4 6 exp 1040 ------- 3 2.0 6.0 0 41
- 2.101737 4 6 exp 1040 ------- 3 2.0 6.0 0 41
- 2.102912 0 1 tcp 1040 ------- 4 3.0 5.0 14 55
r 2.102992 0 1 tcp 1040 ------- 4 3.0 5.0 7 48
+ 2.102992 1 2 tcp 1040 ------- 4 3.0 5.0 7 48
- 2.102992 1 2 tcp 1040 ------- 4 3.0 5.0 7 48
r 2.111312 0 1 tcp 1040 ------- 4 3.0 5.0 8 49
+ 2.111312 1 2 tcp 1040 ------- 4 3.0 5.0 8 49
- 2.111312 1 2 tcp 1040 ------- 4 3.0 5.0 8 49
r 2.119632 0 1 tcp 1040 ------- 4 3.0 5.0 9 50
+ 2.119632 1 2 tcp 1040 ------- 4 3.0 5.0 9 50
- 2.119632 1 2 tcp 1040 ------- 4 3.0 5.0 9 50
r 2.127952 0 1 tcp 1040 ------- 4 3.0 5.0 10 51
+ 2.127952 1 2 tcp 1040 ------- 4 3.0 5.0 10 51
- 2.127952 1 2 tcp 1040 ------- 4 3.0 5.0 10 51
r 2.136272 0 1 tcp 1040 ------- 4 3.0 5.0 11 52
+ 2.136272 1 2 tcp 1040 ------- 4 3.0 5.0 11 52
- 2.136272 1 2 tcp 1040 ------- 4 3.0 5.0 11 52
r 2.142195 0 3 exp 1040 ------- 2 1.0 7.0 0 56
+ 2.142195 3 6 exp 1040 ------- 2 1.0 7.0 0 56
- 2.142195 3 6 exp 1040 ------- 2 1.0 7.0 0 56
r 2.143337 2 4 exp 1040 ------- 3 2.0 6.0 0 44
+ 2.143337 4 6 exp 1040 ------- 3 2.0 6.0 0 44
- 2.143337 4 6 exp 1040 ------- 3 2.0 6.0 0 44
r 2.144592 0 1 tcp 1040 ------- 4 3.0 5.0 12 53
+ 2.144592 1 2 tcp 1040 ------- 4 3.0 5.0 12 53
- 2.144592 1 2 tcp 1040 ------- 4 3.0 5.0 12 53
r 2.150515 0 3 exp 1040 ------- 2 1.0 7.0 0 57
+ 2.150515 3 6 exp 1040 ------- 2 1.0 7.0 0 57
- 2.150515 3 6 exp 1040 ------- 2 1.0 7.0 0 57
r 2.152912 0 1 tcp 1040 ------- 4 3.0 5.0 13 54
+ 2.152912 1 2 tcp 1040 ------- 4 3.0 5.0 13 54
- 2.152912 1 2 tcp 1040 ------- 4 3.0 5.0 13 54
r 2.156 0 4 tcp 1540 ------- 1 0.0 8.0 4 43
+ 2.156 4 8 tcp 1540 ------- 1 0.0 8.0 4 43
- 2.156 4 8 tcp 1540 ------- 1 0.0 8.0 4 43
r 2.158835 0 3 exp 1040 ------- 2 1.0 7.0 0 58
+ 2.158835 3 6 exp 1040 ------- 2 1.0 7.0 0 58
- 2.158835 3 6 exp 1040 ------- 2 1.0 7.0 0 58
r 2.161232 0 1 tcp 1040 ------- 4 3.0 5.0 14 55
+ 2.161232 1 2 tcp 1040 ------- 4 3.0 5.0 14 55
- 2.161232 1 2 tcp 1040 ------- 4 3.0 5.0 14 55
r 2.161312 1 2 tcp 1040 ------- 4 3.0 5.0 7 48
+ 2.161312 2 5 tcp 1040 ------- 4 3.0 5.0 7 48
- 2.161312 2 5 tcp 1040 ------- 4 3.0 5.0 7 48
r 2.167155 0 3 exp 1040 ------- 2 1.0 7.0 0 59
+ 2.167155 3 6 exp 1040 ------- 2 1.0 7.0 0 59
- 2.167155 3 6 exp 1040 ------- 2 1.0 7.0 0 59
r 2.169632 1 2 tcp 1040 ------- 4 3.0 5.0 8 49
+ 2.169632 2 5 tcp 1040 ------- 4 3.0 5.0 8 49
- 2.169632 2 5 tcp 1040 ------- 4 3.0 5.0 8 49
r 2.175475 0 3 exp 1040 ------- 2 1.0 7.0 0 60
+ 2.175475 3 6 exp 1040 ------- 2 1.0 7.0 0 60
- 2.175475 3 6 exp 1040 ------- 2 1.0 7.0 0 60
r 2.177952 1 2 tcp 1040 ------- 4 3.0 5.0 9 50
+ 2.177952 2 5 tcp 1040 ------- 4 3.0 5.0 9 50
- 2.177952 2 5 tcp 1040 ------- 4 3.0 5.0 9 50
r 2.183795 0 3 exp 1040 ------- 2 1.0 7.0 0 61
+ 2.183795 3 6 exp 1040 ------- 2 1.0 7.0 0 61
- 2.183795 3 6 exp 1040 ------- 2 1.0 7.0 0 61
r 2.184937 2 4 exp 1040 ------- 3 2.0 6.0 0 45
+ 2.184937 4 6 exp 1040 ------- 3 2.0 6.0 0 45
- 2.184937 4 6 exp 1040 ------- 3 2.0 6.0 0 45
r 2.186272 1 2 tcp 1040 ------- 4 3.0 5.0 10 51
+ 2.186272 2 5 tcp 1040 ------- 4 3.0 5.0 10 51
- 2.186272 2 5 tcp 1040 ------- 4 3.0 5.0 10 51
r 2.192115 0 3 exp 1040 ------- 2 1.0 7.0 0 62
+ 2.192115 3 6 exp 1040 ------- 2 1.0 7.0 0 62
- 2.192115 3 6 exp 1040 ------- 2 1.0 7.0 0 62
r 2.194592 1 2 tcp 1040 ------- 4 3.0 5.0 11 52
+ 2.194592 2 5 tcp 1040 ------- 4 3.0 5.0 11 52
- 2.194592 2 5 tcp 1040 ------- 4 3.0 5.0 11 52
r 2.200435 0 3 exp 1040 ------- 2 1.0 7.0 0 63
+ 2.200435 3 6 exp 1040 ------- 2 1.0 7.0 0 63
- 2.200435 3 6 exp 1040 ------- 2 1.0 7.0 0 63
r 2.202912 1 2 tcp 1040 ------- 4 3.0 5.0 12 53
+ 2.202912 2 5 tcp 1040 ------- 4 3.0 5.0 12 53
- 2.202912 2 5 tcp 1040 ------- 4 3.0 5.0 12 53
r 2.211232 1 2 tcp 1040 ------- 4 3.0 5.0 13 54
+ 2.211232 2 5 tcp 1040 ------- 4 3.0 5.0 13 54
- 2.211232 2 5 tcp 1040 ------- 4 3.0 5.0 13 54
r 2.2176 0 4 tcp 1540 ------- 1 0.0 8.0 5 46
+ 2.2176 4 8 tcp 1540 ------- 1 0.0 8.0 5 46
- 2.2176 4 8 tcp 1540 ------- 1 0.0 8.0 5 46
r 2.219552 1 2 tcp 1040 ------- 4 3.0 5.0 14 55
+ 2.219552 2 5 tcp 1040 ------- 4 3.0 5.0 14 55
- 2.219552 2 5 tcp 1040 ------- 4 3.0 5.0 14 55
r 2.243859 3 6 exp 1040 ------- 2 1.0 7.0 0 56
+ 2.243859 6 7 exp 1040 ------- 2 1.0 7.0 0 56
- 2.243859 6 7 exp 1040 ------- 2 1.0 7.0 0 56
r 2.252179 3 6 exp 1040 ------- 2 1.0 7.0 0 57
+ 2.252179 6 7 exp 1040 ------- 2 1.0 7.0 0 57
- 2.252179 6 7 exp 1040 ------- 2 1.0 7.0 0 57
r 2.260499 3 6 exp 1040 ------- 2 1.0 7.0 0 58
+ 2.260499 6 7 exp 1040 ------- 2 1.0 7.0 0 58
- 2.260499 6 7 exp 1040 ------- 2 1.0 7.0 0 58
r 2.262976 2 5 tcp 1040 ------- 4 3.0 5.0 7 48
+ 2.262976 5 2 ack 40 ------- 4 5.0 3.0 7 64
- 2.262976 5 2 ack 40 ------- 4 5.0 3.0 7 64
r 2.268819 3 6 exp 1040 ------- 2 1.0 7.0 0 59
+ 2.268819 6 7 exp 1040 ------- 2 1.0 7.0 0 59
- 2.268819 6 7 exp 1040 ------- 2 1.0 7.0 0 59
r 2.271296 2 5 tcp 1040 ------- 4 3.0 5.0 8 49
+ 2.271296 5 2 ack 40 ------- 4 5.0 3.0 8 65
- 2.271296 5 2 ack 40 ------- 4 5.0 3.0 8 65
r 2.277139 3 6 exp 1040 ------- 2 1.0 7.0 0 60
+ 2.277139 6 7 exp 1040 ------- 2 1.0 7.0 0 60
- 2.277139 6 7 exp 1040 ------- 2 1.0 7.0 0 60
r 2.2792 0 4 tcp 1540 ------- 1 0.0 8.0 6 47
+ 2.2792 4 8 tcp 1540 ------- 1 0.0 8.0 6 47
- 2.2792 4 8 tcp 1540 ------- 1 0.0 8.0 6 47
r 2.279616 2 5 tcp 1040 ------- 4 3.0 5.0 9 50
+ 2.279616 5 2 ack 40 ------- 4 5.0 3.0 9 66
- 2.279616 5 2 ack 40 ------- 4 5.0 3.0 9 66
r 2.285459 3 6 exp 1040 ------- 2 1.0 7.0 0 61
+ 2.285459 6 7 exp 1040 ------- 2 1.0 7.0 0 61
- 2.285459 6 7 exp 1040 ------- 2 1.0 7.0 0 61
r 2.287936 2 5 tcp 1040 ------- 4 3.0 5.0 10 51
+ 2.287936 5 2 ack 40 ------- 4 5.0 3.0 10 67
- 2.287936 5 2 ack 40 ------- 4 5.0 3.0 10 67
r 2.293779 3 6 exp 1040 ------- 2 1.0 7.0 0 62
+ 2.293779 6 7 exp 1040 ------- 2 1.0 7.0 0 62
- 2.293779 6 7 exp 1040 ------- 2 1.0 7.0 0 62
r 2.296256 2 5 tcp 1040 ------- 4 3.0 5.0 11 52
+ 2.296256 5 2 ack 40 ------- 4 5.0 3.0 11 68
- 2.296256 5 2 ack 40 ------- 4 5.0 3.0 11 68
r 2.301737 4 6 exp 1040 ------- 3 2.0 6.0 0 40
+ 2.301737 6 4 ack 40 ------- 3 6.0 2.0 3 69
- 2.301737 6 4 ack 40 ------- 3 6.0 2.0 3 69
r 2.302099 3 6 exp 1040 ------- 2 1.0 7.0 0 63
+ 2.302099 6 7 exp 1040 ------- 2 1.0 7.0 0 63
- 2.302099 6 7 exp 1040 ------- 2 1.0 7.0 0 63
r 2.302179 6 7 exp 1040 ------- 2 1.0 7.0 0 56
+ 2.302179 7 6 ack 40 ------- 2 7.0 1.0 7 70
- 2.302179 7 6 ack 40 ------- 2 7.0 1.0 7 70
r 2.304576 2 5 tcp 1040 ------- 4 3.0 5.0 12 53
+ 2.304576 5 2 ack 40 ------- 4 5.0 3.0 12 71
- 2.304576 5 2 ack 40 ------- 4 5.0 3.0 12 71
r 2.310499 6 7 exp 1040 ------- 2 1.0 7.0 0 57
+ 2.310499 7 6 ack 40 ------- 2 7.0 1.0 8 72
- 2.310499 7 6 ack 40 ------- 2 7.0 1.0 8 72
r 2.312896 2 5 tcp 1040 ------- 4 3.0 5.0 13 54
+ 2.312896 5 2 ack 40 ------- 4 5.0 3.0 13 73