V -t * -v 1.0a5 -a 0
A -t * -n 1 -p 0 -o 0x7fffffff -c 30 -a 1
A -t * -h 1 -m 1073741823 -s 0
c -t * -i 4 -n Yellow
c -t * -i 1 -n Green
c -t * -i 2 -n Blue
c -t * -i 3 -n Red
n -t * -a 8 -s 8 -S UP -v circle -c green -i green
n -t * -a 4 -s 4 -S UP -v circle -c black -i black
n -t * -a 0 -s 0 -S UP -v circle -c green -i green
n -t * -a 5 -s 5 -S UP -v circle -c yellow -i yellow
n -t * -a 1 -s 1 -S UP -v circle -c blue -i blue
n -t * -a 6 -s 6 -S UP -v circle -c red -i red
n -t * -a 2 -s 2 -S UP -v circle -c red -i red
n -t * -a 7 -s 7 -S UP -v circle -c blue -i blue
n -t * -a 3 -s 3 -S UP -v circle -c yellow -i yellow
l -t * -s 6 -d 4 -S UP -r 200000 -D 0.20000000000000001 -c black
l -t * -s 2 -d 4 -S UP -r 200000 -D 0.20000000000000001 -c black
l -t * -s 8 -d 4 -S UP -r 200000 -D 0.20000000000000001 -c black
l -t * -s 0 -d 1 -S UP -r 1000000 -D 0.050000000000000003 -c black -o right
l -t * -s 0 -d 4 -S UP -r 200000 -D 0.20000000000000001 -c black -o right-down
l -t * -s 1 -d 2 -S UP -r 1000000 -D 0.050000000000000003 -c black -o right
l -t * -s 2 -d 5 -S UP -r 5000000 -D 0.10000000000000001 -c black -o down
l -t * -s 5 -d 8 -S UP -r 5000000 -D 0.10000000000000001 -c black -o down
l -t * -s 8 -d 7 -S UP -r 1000000 -D 0.050000000000000003 -c black -o left
l -t * -s 7 -d 6 -S UP -r 1000000 -D 0.050000000000000003 -c black -o left
l -t * -s 6 -d 3 -S UP -r 5000000 -D 0.10000000000000001 -c black -o up
l -t * -s 3 -d 0 -S UP -r 5000000 -D 0.10000000000000001 -c black -o up
+ -t 0.1 -s 0 -d 4 -p tcp -e 40 -c 1 -i 0 -a 1 -x {0.0 8.0 0 ------- null}
- -t 0.1 -s 0 -d 4 -p tcp -e 40 -c 1 -i 0 -a 1 -x {0.0 8.0 0 ------- null}
h -t 0.1 -s 0 -d 4 -p tcp -e 40 -c 1 -i 0 -a 1 -x {0.0 8.0 -1 ------- null}
+ -t 0.1 -s 3 -d 0 -p tcp -e 40 -c 4 -i 1 -a 4 -x {3.0 5.0 0 ------- null}
- -t 0.1 -s 3 -d 0 -p tcp -e 40 -c 4 -i 1 -a 4 -x {3.0 5.0 0 ------- null}
h -t 0.1 -s 3 -d 0 -p tcp -e 40 -c 4 -i 1 -a 4 -x {3.0 5.0 -1 ------- null}
+ -t 0.125736986743863 -s 2 -d 4 -p exp -e 40 -c 3 -i 2 -a 3 -x {2.0 6.0 0 ------- null}
- -t 0.125736986743863 -s 2 -d 4 -p exp -e 40 -c 3 -i 2 -a 3 -x {2.0 6.0 0 ------- null}
h -t 0.125736986743863 -s 2 -d 4 -p exp -e 40 -c 3 -i 2 -a 3 -x {2.0 6.0 -1 ------- null}
+ -t 0.139203094513941 -s 1 -d 0 -p exp -e 40 -c 2 -i 3 -a 2 -x {1.0 7.0 0 ------- null}
- -t 0.139203094513941 -s 1 -d 0 -p exp -e 40 -c 2 -i 3 -a 2 -x {1.0 7.0 0 ------- null}
h -t 0.139203094513941 -s 1 -d 0 -p exp -e 40 -c 2 -i 3 -a 2 -x {1.0 7.0 -1 ------- null}
r -t 0.189523094513941 -s 1 -d 0 -p exp -e 40 -c 2 -i 3 -a 2 -x {1.0 7.0 0 ------- null}
+ -t 0.189523094513941 -s 0 -d 3 -p exp -e 40 -c 2 -i 3 -a 2 -x {1.0 7.0 0 ------- null}
- -t 0.189523094513941 -s 0 -d 3 -p exp -e 40 -c 2 -i 3 -a 2 -x {1.0 7.0 0 ------- null}
h -t 0.189523094513941 -s 0 -d 3 -p exp -e 40 -c 2 -i 3 -a 2 -x {1.0 7.0 -1 ------- null}
r -t 0.200064 -s 3 -d 0 -p tcp -e 40 -c 4 -i 1 -a 4 -x {3.0 5.0 0 ------- null}
+ -t 0.200064 -s 0 -d 1 -p tcp -e 40 -c 4 -i 1 -a 4 -x {3.0 5.0 0 ------- null}
- -t 0.200064 -s 0 -d 1 -p tcp -e 40 -c 4 -i 1 -a 4 -x {3.0 5.0 0 ------- null}
h -t 0.200064 -s 0 -d 1 -p tcp -e 40 -c 4 -i 1 -a 4 -x {3.0 5.0 -1 ------- null}
r -t 0.250384 -s 0 -d 1 -p tcp -e 40 -c 4 -i 1 -a 4 -x {3.0 5.0 0 ------- null}
+ -t 0.250384 -s 1 -d 2 -p tcp -e 40 -c 4 -i 1 -a 4 -x {3.0 5.0 0 ------- null}
- -t 0.250384 -s 1 -d 2 -p tcp -e 40 -c 4 -i 1 -a 4 -x {3.0 5.0 0 ------- null}
h -t 0.250384 -s 1 -d 2 -p tcp -e 40 -c 4 -i 1 -a 4 -x {3.0 5.0 -1 ------- null}
r -t 0.289587094513941 -s 0 -d 3 -p exp -e 40 -c 2 -i 3 -a 2 -x {1.0 7.0 0 ------- null}
+ -t 0.289587094513941 -s 3 -d 6 -p exp -e 40 -c 2 -i 3 -a 2 -x {1.0 7.0 0 ------- null}
- -t 0.289587094513941 -s 3 -d 6 -p exp -e 40 -c 2 -i 3 -a 2 -x {1.0 7.0 0 ------- null}
h -t 0.289587094513941 -s 3 -d 6 -p exp -e 40 -c 2 -i 3 -a 2 -x {1.0 7.0 -1 ------- null}
r -t 0.300704 -s 1 -d 2 -p tcp -e 40 -c 4 -i 1 -a 4 -x {3.0 5.0 0 ------- null}
+ -t 0.300704 -s 2 -d 5 -p tcp -e 40 -c 4 -i 1 -a 4 -x {3.0 5.0 0 ------- null}
- -t 0.300704 -s 2 -d 5 -p tcp -e 40 -c 4 -i 1 -a 4 -x {3.0 5.0 0 ------- null}
h -t 0.300704 -s 2 -d 5 -p tcp -e 40 -c 4 -i 1 -a 4 -x {3.0 5.0 -1 ------- null}
r -t 0.3016 -s 0 -d 4 -p tcp -e 40 -c 1 -i 0 -a 1 -x {0.0 8.0 0 ------- null}
+ -t 0.3016 -s 4 -d 8 -p tcp -e 40 -c 1 -i 0 -a 1 -x {0.0 8.0 0 ------- null}
- -t 0.3016 -s 4 -d 8 -p tcp -e 40 -c 1 -i 0 -a 1 -x {0.0 8.0 0 ------- null}
h -t 0.3016 -s 4 -d 8 -p tcp -e 40 -c 1 -i 0 -a 1 -x {0.0 8.0 -1 ------- null}
r -t 0.327336986743863 -s 2 -d 4 -p exp -e 40 -c 3 -i 2 -a 3 -x {2.0 6.0 0 ------- null}
+ -t 0.327336986743863 -s 4 -d 6 -p exp -e 40 -c 3 -i 2 -a 3 -x {2.0 6.0 0 ------- null}
- -t 0.327336986743863 -s 4 -d 6 -p exp -e 40 -c 3 -i 2 -a 3 -x {2.0 6.0 0 ------- null}
h -t 0.327336986743863 -s 4 -d 6 -p exp -e 40 -c 3 -i 2 -a 3 -x {2.0 6.0 -1 ------- null}
r -t 0.389651094513941 -s 3 -d 6 -p exp -e 40 -c 2 -i 3 -a 2 -x {1.0 7.0 0 ------- null}
+ -t 0.389651094513941 -s 6 -d 7 -p exp -e 40 -c 2 -i 3 -a 2 -x {1.0 7.0 0 ------- null}
- -t 0.389651094513941 -s 6 -d 7 -p exp -e 40 -c 2 -i 3 -a 2 -x {1.0 7.0 0 ------- null}
h -t 0.389651094513941 -s 6 -d 7 -p exp -e 40 -c 2 -i 3 -a 2 -x {1.0 7.0 -1 ------- null}
r -t 0.400768 -s 2 -d 5 -p tcp -e 40 -c 4 -i 1 -a 4 -x {3.0 5.0 0 ------- null}
+ -t 0.400768 -s 5 -d 2 -p ack -e 40 -c 4 -i 4 -a 4 -x {5.0 3.0 0 ------- null}
- -t 0.400768 -s 5 -d 2 -p ack -e 40 -c 4 -i 4 -a 4 -x {5.0 3.0 0 ------- null}
h -t 0.400768 -s 5 -d 2 -p ack -e 40 -c 4 -i 4 -a 4 -x {5.0 3.0 -1 ------- null}
r -t 0.439971094513941 -s 6 -d 7 -p exp -e 40 -c 2 -i 3 -a 2 -x {1.0 7.0 0 ------- null}
+ -t 0.439971094513941 -s 7 -d 6 -p ack -e 40 -c 2 -i 5 -a 2 -x {7.0 1.0 0 ------- null}
- -t 0.439971094513941 -s 7 -d 6 -p ack -e 40 -c 2 -i 5 -a 2 -x {7.0 1.0 0 ------- null}
h -t 0.439971094513941 -s 7 -d 6 -p ack -e 40 -c 2 -i 5 -a 2 -x {7.0 1.0 -1 ------- null}
r -t 0.490291094513941 -s 7 -d 6 -p ack -e 40 -c 2 -i 5 -a 2 -x {7.0 1.0 0 ------- null}
+ -t 0.490291094513941 -s 6 -d 3 -p ack -e 40 -c 2 -i 5 -a 2 -x {7.0 1.0 0 ------- null}
- -t 0.490291094513941 -s 6 -d 3 -p ack -e 40 -c 2 -i 5 -a 2 -x {7.0 1.0 0 ------- null}
h -t 0.490291094513941 -s 6 -d 3 -p ack -e 40 -c 2 -i 5 -a 2 -x {7.0 1.0 -1 ------- null}
r -t 0.500832 -s 5 -d 2 -p ack -e 40 -c 4 -i 4 -a 4 -x {5.0 3.0 0 ------- null}
+ -t 0.500832 -s 2 -d 1 -p ack -e 40 -c 4 -i 4 -a 4 -x {5.0 3.0 0 ------- null}
- -t 0.500832 -s 2 -d 1 -p ack -e 40 -c 4 -i 4 -a 4 -x {5.0 3.0 0 ------- null}
h -t 0.500832 -s 2 -d 1 -p ack -e 40 -c 4 -i 4 -a 4 -x {5.0 3.0 -1 ------- null}
r -t 0.5032 -s 4 -d 8 -p tcp -e 40 -c 1 -i 0 -a 1 -x {0.0 8.0 0 ------- null}
+ -t 0.5032 -s 8 -d 4 -p ack -e 40 -c 1 -i 6 -a 1 -x {8.0 0.0 0 ------- null}
- -t 0.5032 -s 8 -d 4 -p ack -e 40 -c 1 -i 6 -a 1 -x {8.0 0.0 0 ------- null}
h -t 0.5032 -s 8 -d 4 -p ack -e 40 -c 1 -i 6 -a 1 -x {8.0 0.0 -1 ------- null}
r -t 0.528936986743863 -s 4 -d 6 -p exp -e 40 -c 3 -i 2 -a 3 -x {2.0 6.0 0 ------- null}
+ -t 0.528936986743863 -s 6 -d 4 -p ack -e 40 -c 3 -i 7 -a 3 -x {6.0 2.0 0 ------- null}
- -t 0.528936986743863 -s 6 -d 4 -p ack -e 40 -c 3 -i 7 -a 3 -x {6.0 2.0 0 ------- null}
h -t 0.528936986743863 -s 6 -d 4 -p ack -e 40 -c 3 -i 7 -a 3 -x {6.0 2.0 -1 ------- null}
r -t 0.551152 -s 2 -d 1 -p ack -e 40 -c 4 -i 4 -a 4 -x {5.0 3.0 0 ------- null}
+ -t 0.551152 -s 1 -d 0 -p ack -e 40 -c 4 -i 4 -a 4 -x {5.0 3.0 0 ------- null}
- -t 0.551152 -s 1 -d 0 -p ack -e 40 -c 4 -i 4 -a 4 -x {5.0 3.0 0 ------- null}
h -t 0.551152 -s 1 -d 0 -p ack -e 40 -c 4 -i 4 -a 4 -x {5.0 3.0 -1 ------- null}
r -t 0.590355094513941 -s 6 -d 3 -p ack -e 40 -c 2 -i 5 -a 2 -x {7.0 1.0 0 ------- null}
+ -t 0.590355094513941 -s 3 -d 0 -p ack -e 40 -c 2 -i 5 -a 2 -x {7.0 1.0 0 ------- null}
- -t 0.590355094513941 -s 3 -d 0 -p ack -e 40 -c 2 -i 5 -a 2 -x {7.0 1.0 0 ------- null}
h -t 0.590355094513941 -s 3 -d 0 -p ack -e 40 -c 2 -i 5 -a 2 -x {7.0 1.0 -1 ------- null}
r -t 0.601472 -s 1 -d 0 -p ack -e 40 -c 4 -i 4 -a 4 -x {5.0 3.0 0 ------- null}
+ -t 0.601472 -s 0 -d 3 -p ack -e 40 -c 4 -i 4 -a 4 -x {5.0 3.0 0 ------- null}
- -t 0.601472 -s 0 -d 3 -p ack -e 40 -c 4 -i 4 -a 4 -x {5.0 3.0 0 ------- null}
h -t 0.601472 -s 0 -d 3 -p ack -e 40 -c 4 -i 4 -a 4 -x {5.0 3.0 -1 ------- null}
r -t 0.690419094513941 -s 3 -d 0 -p ack -e 40 -c 2 -i 5 -a 2 -x {7.0 1.0 0 ------- null}
+ -t 0.690419094513941 -s 0 -d 1 -p ack -e 40 -c 2 -i 5 -a 2 -x {7.0 1.0 0 ------- null}
- -t 0.690419094513941 -s 0 -d 1 -p ack -e 40 -c 2 -i 5 -a 2 -x {7.0 1.0 0 ------- null}
h -t 0.690419094513941 -s 0 -d 1 -p ack -e 40 -c 2 -i 5 -a 2 -x {7.0 1.0 -1 ------- null}
r -t 0.701536 -s 0 -d 3 -p ack -e 40 -c 4 -i 4 -a 4 -x {5.0 3.0 0 ------- null}
+ -t 0.701536 -s 3 -d 0 -p tcp -e 1040 -c 4 -i 8 -a 4 -x {3.0 5.0 1 ------- null}
- -t 0.701536 -s 3 -d 0 -p tcp -e 1040 -c 4 -i 8 -a 4 -x {3.0 5.0 1 ------- null}
h -t 0.701536 -s 3 -d 0 -p tcp -e 1040 -c 4 -i 8 -a 4 -x {3.0 5.0 -1 ------- null}
+ -t 0.701536 -s 3 -d 0 -p tcp -e 1040 -c 4 -i 9 -a 4 -x {3.0 5.0 2 ------- null}
- -t 0.7032 -s 3 -d 0 -p tcp -e 1040 -c 4 -i 9 -a 4 -x {3.0 5.0 2 ------- null}
h -t 0.7032 -s 3 -d 0 -p tcp -e 1040 -c 4 -i 9 -a 4 -x {3.0 5.0 -1 ------- null}
r -t 0.7048 -s 8 -d 4 -p ack -e 40 -c 1 -i 6 -a 1 -x {8.0 0.0 0 ------- null}
+ -t 0.7048 -s 4 -d 0 -p ack -e 40 -c 1 -i 6 -a 1 -x {8.0 0.0 0 ------- null}
- -t 0.7048 -s 4 -d 0 -p ack -e 40 -c 1 -i 6 -a 1 -x {8.0 0.0 0 ------- null}
h -t 0.7048 -s 4 -d 0 -p ack -e 40 -c 1 -i 6 -a 1 -x {8.0 0.0 -1 ------- null}
r -t 0.730536986743863 -s 6 -d 4 -p ack -e 40 -c 3 -i 7 -a 3 -x {6.0 2.0 0 ------- null}
+ -t 0.730536986743863 -s 4 -d 2 -p ack -e 40 -c 3 -i 7 -a 3 -x {6.0 2.0 0 ------- null}
- -t 0.730536986743863 -s 4 -d 2 -p ack -e 40 -c 3 -i 7 -a 3 -x {6.0 2.0 0 ------- null}
h -t 0.730536986743863 -s 4 -d 2 -p ack -e 40 -c 3 -i 7 -a 3 -x {6.0 2.0 -1 ------- null}
r -t 0.740739094513941 -s 0 -d 1 -p ack -e 40 -c 2 -i 5 -a 2 -x {7.0 1.0 0 ------- null}
+ -t 0.740739094513941 -s 1 -d 0 -p exp -e 1040 -c 2 -i 10 -a 2 -x {1.0 7.0 0 ------- null}
- -t 0.740739094513941 -s 1 -d 0 -p exp -e 1040 -c 2 -i 10 -a 2 -x {1.0 7.0 0 ------- null}
h -t 0.740739094513941 -s 1 -d 0 -p exp -e 1040 -c 2 -i 10 -a 2 -x {1.0 7.0 -1 ------- null}
+ -t 0.740739094513941 -s 1 -d 0 -p exp -e 1040 -c 2 -i 11 -a 2 -x {1.0 7.0 0 ------- null}
- -t 0.749059094513941 -s 1 -d 0 -p exp -e 1040 -c 2 -i 11 -a 2 -x {1.0 7.0 0 ------- null}
h -t 0.749059094513941 -s 1 -d 0 -p exp -e 1040 -c 2 -i 11 -a 2 -x {1.0 7.0 -1 ------- null}
r -t 0.799059094513941 -s 1 -d 0 -p exp -e 1040 -c 2 -i 10 -a 2 -x {1.0 7.0 0 ------- null}
+ -t 0.799059094513941 -s 0 -d 3 -p exp -e 1040 -c 2 -i 10 -a 2 -x {1.0 7.0 0 ------- null}
- -t 0.799059094513941 -s 0 -d 3 -p exp -e 1040 -c 2 -i 10 -a 2 -x {1.0 7.0 0 ------- null}
h -t 0.799059094513941 -s 0 -d 3 -p exp -e 1040 -c 2 -i 10 -a 2 -x {1.0 7.0 -1 ------- null}
r -t 0.8032 -s 3 -d 0 -p tcp -e 1040 -c 4 -i 8 -a 4 -x {3.0 5.0 1 ------- null}
+ -t 0.8032 -s 0 -d 1 -p tcp -e 1040 -c 4 -i 8 -a 4 -x {3.0 5.0 1 ------- null}
- -t 0.8032 -s 0 -d 1 -p tcp -e 1040 -c 4 -i 8 -a 4 -x {3.0 5.0 1 ------- null}
h -t 0.8032 -s 0 -d 1 -p tcp -e 1040 -c 4 -i 8 -a 4 -x {3.0 5.0 -1 ------- null}
r -t 0.804864 -s 3 -d 0 -p tcp -e 1040 -c 4 -i 9 -a 4 -x {3.0 5.0 2 ------- null}
+ -t 0.804864 -s 0 -d 1 -p tcp -e 1040 -c 4 -i 9 -a 4 -x {3.0 5.0 2 ------- null}
r -t 0.807379094513941 -s 1 -d 0 -p exp -e 1040 -c 2 -i 11 -a 2 -x {1.0 7.0 0 ------- null}
+ -t 0.807379094513941 -s 0 -d 3 -p exp -e 1040 -c 2 -i 11 -a 2 -x {1.0 7.0 0 ------- null}
- -t 0.807379094513941 -s 0 -d 3 -p exp -e 1040 -c 2 -i 11 -a 2 -x {1.0 7.0 0 ------- null}
h -t 0.807379094513941 -s 0 -d 3 -p exp -e 1040 -c 2 -i 11 -a 2 -x {1.0 7.0 -1 ------- null}
- -t 0.81152 -s 0 -d 1 -p tcp -e 1040 -c 4 -i 9 -a 4 -x {3.0 5.0 2 ------- null}
h -t 0.81152 -s 0 -d 1 -p tcp -e 1040 -c 4 -i 9 -a 4 -x {3.0 5.0 -1 ------- null}
r -t 0.86152 -s 0 -d 1 -p tcp -e 1040 -c 4 -i 8 -a 4 -x {3.0 5.0 1 ------- null}
+ -t 0.86152 -s 1 -d 2 -p tcp -e 1040 -c 4 -i 8 -a 4 -x {3.0 5.0 1 ------- null}
- -t 0.86152 -s 1 -d 2 -p tcp -e 1040 -c 4 -i 8 -a 4 -x {3.0 5.0 1 ------- null}
h -t 0.86152 -s 1 -d 2 -p tcp -e 1040 -c 4 -i 8 -a 4 -x {3.0 5.0 -1 ------- null}
r -t 0.86984 -s 0 -d 1 -p tcp -e 1040 -c 4 -i 9 -a 4 -x {3.0 5.0 2 ------- null}
+ -t 0.86984 -s 1 -d 2 -p tcp -e 1040 -c 4 -i 9 -a 4 -x {3.0 5.0 2 ------- null}
- -t 0.86984 -s 1 -d 2 -p tcp -e 1040 -c 4 -i 9 -a 4 -x {3.0 5.0 2 ------- null}
h -t 0.86984 -s 1 -d 2 -p tcp -e 1040 -c 4 -i 9 -a 4 -x {3.0 5.0 -1 ------- null}
r -t 0.900723094513941 -s 0 -d 3 -p exp -e 1040 -c 2 -i 10 -a 2 -x {1.0 7.0 0 ------- null}
+ -t 0.900723094513941 -s 3 -d 6 -p exp -e 1040 -c 2 -i 10 -a 2 -x {1.0 7.0 0 ------- null}
- -t 0.900723094513941 -s 3 -d 6 -p exp -e 1040 -c 2 -i 10 -a 2 -x {1.0 7.0 0 ------- null}
h -t 0.900723094513941 -s 3 -d 6 -p exp -e 1040 -c 2 -i 10 -a 2 -x {1.0 7.0 -1 ------- null}
r -t 0.9064 -s 4 -d 0 -p ack -e 40 -c 1 -i 6 -a 1 -x {8.0 0.0 0 ------- null}
+ -t 0.9064 -s 0 -d 4 -p tcp -e 1540 -c 1 -i 12 -a 1 -x {0.0 8.0 1 ------- null}
- -t 0.9064 -s 0 -d 4 -p tcp -e 1540 -c 1 -i 12 -a 1 -x {0.0 8.0 1 ------- null}
h -t 0.9064 -s 0 -d 4 -p tcp -e 1540 -c 1 -i 12 -a 1 -x {0.0 8.0 -1 ------- null}
+ -t 0.9064 -s 0 -d 4 -p tcp -e 1540 -c 1 -i 13 -a 1 -x {0.0 8.0 2 ------- null}
r -t 0.909043094513941 -s 0 -d 3 -p exp -e 1040 -c 2 -i 11 -a 2 -x {1.0 7.0 0 ------- null}
+ -t 0.909043094513941 -s 3 -d 6 -p exp -e 1040 -c 2 -i 11 -a 2 -x {1.0 7.0 0 ------- null}
- -t 0.909043094513941 -s 3 -d 6 -p exp -e 1040 -c 2 -i 11 -a 2 -x {1.0 7.0 0 ------- null}
h -t 0.909043094513941 -s 3 -d 6 -p exp -e 1040 -c 2 -i 11 -a 2 -x {1.0 7.0 -1 ------- null}
r -t 0.91984 -s 1 -d 2 -p tcp -e 1040 -c 4 -i 8 -a 4 -x {3.0 5.0 1 ------- null}
+ -t 0.91984 -s 2 -d 5 -p tcp -e 1040 -c 4 -i 8 -a 4 -x {3.0 5.0 1 ------- null}
- -t 0.91984 -s 2 -d 5 -p tcp -e 1040 -c 4 -i 8 -a 4 -x {3.0 5.0 1 ------- null}
h -t 0.91984 -s 2 -d 5 -p tcp -e 1040 -c 4 -i 8 -a 4 -x {3.0 5.0 -1 ------- null}
r -t 0.92816 -s 1 -d 2 -p tcp -e 1040 -c 4 -i 9 -a 4 -x {3.0 5.0 2 ------- null}
+ -t 0.92816 -s 2 -d 5 -p tcp -e 1040 -c 4 -i 9 -a 4 -x {3.0 5.0 2 ------- null}
- -t 0.92816 -s 2 -d 5 -p tcp -e 1040 -c 4 -i 9 -a 4 -x {3.0 5.0 2 ------- null}
h -t 0.92816 -s 2 -d 5 -p tcp -e 1040 -c 4 -i 9 -a 4 -x {3.0 5.0 -1 ------- null}
r -t 0.932136986743863 -s 4 -d 2 -p ack -e 40 -c 3 -i 7 -a 3 -x {6.0 2.0 0 ------- null}
+ -t 0.932136986743863 -s 2 -d 4 -p exp -e 1040 -c 3 -i 14 -a 3 -x {2.0 6.0 0 ------- null}
- -t 0.932136986743863 -s 2 -d 4 -p exp -e 1040 -c 3 -i 14 -a 3 -x {2.0 6.0 0 ------- null}
h -t 0.932136986743863 -s 2 -d 4 -p exp -e 1040 -c 3 -i 14 -a 3 -x {2.0 6.0 -1 ------- null}
+ -t 0.932136986743863 -s 2 -d 4 -p exp -e 1040 -c 3 -i 15 -a 3 -x {2.0 6.0 0 ------- null}
- -t 0.968 -s 0 -d 4 -p tcp -e 1540 -c 1 -i 13 -a 1 -x {0.0 8.0 2 ------- null}
h -t 0.968 -s 0 -d 4 -p tcp -e 1540 -c 1 -i 13 -a 1 -x {0.0 8.0 -1 ------- null}
- -t 0.973736986743863 -s 2 -d 4 -p exp -e 1040 -c 3 -i 15 -a 3 -x {2.0 6.0 0 ------- null}
h -t 0.973736986743863 -s 2 -d 4 -p exp -e 1040 -c 3 -i 15 -a 3 -x {2.0 6.0 -1 ------- null}
r -t 1.00238709451394 -s 3 -d 6 -p exp -e 1040 -c 2 -i 10 -a 2 -x {1.0 7.0 0 ------- null}
+ -t 1.00238709451394 -s 6 -d 7 -p exp -e 1040 -c 2 -i 10 -a 2 -x {1.0 7.0 0 ------- null}
- -t 1.00238709451394 -s 6 -d 7 -p exp -e 1040 -c 2 -i 10 -a 2 -x {1.0 7.0 0 ------- null}
h -t 1.00238709451394 -s 6 -d 7 -p exp -e 1040 -c 2 -i 10 -a 2 -x {1.0 7.0 -1 ------- null}
r -t 1.01070709451394 -s 3 -d 6 -p exp -e 1040 -c 2 -i 11 -a 2 -x {1.0 7.0 0 ------- null}
+ -t 1.01070709451394 -s 6 -d 7 -p exp -e 1040 -c 2 -i 11 -a 2 -x {1.0 7.0 0 ------- null}
- -t 1.01070709451394 -s 6 -d 7 -p exp -e 1040 -c 2 -i 11 -a 2 -x {1.0 7.0 0 ------- null}
h -t 1.01070709451394 -s 6 -d 7 -p exp -e 1040 -c 2 -i 11 -a 2 -x {1.0 7.0 -1 ------- null}
r -t 1.021504 -s 2 -d 5 -p tcp -e 1040 -c 4 -i 8 -a 4 -x {3.0 5.0 1 ------- null}
+ -t 1.021504 -s 5 -d 2 -p ack -e 40 -c 4 -i 16 -a 4 -x {5.0 3.0 1 ------- null}
- -t 1.021504 -s 5 -d 2 -p ack -e 40 -c 4 -i 16 -a 4 -x {5.0 3.0 1 ------- null}
h -t 1.021504 -s 5 -d 2 -p ack -e 40 -c 4 -i 16 -a 4 -x {5.0 3.0 -1 ------- null}
r -t 1.029824 -s 2 -d 5 -p tcp -e 1040 -c 4 -i 9 -a 4 -x {3.0 5.0 2 ------- null}
+ -t 1.029824 -s 5 -d 2 -p ack -e 40 -c 4 -i 17 -a 4 -x {5.0 3.0 2 ------- null}
- -t 1.029824 -s 5 -d 2 -p ack -e 40 -c 4 -i 17 -a 4 -x {5.0 3.0 2 ------- null}
h -t 1.029824 -s 5 -d 2 -p ack -e 40 -c 4 -i 17 -a 4 -x {5.0 3.0 -1 ------- null}
r -t 1.06070709451394 -s 6 -d 7 -p exp -e 1040 -c 2 -i 10 -a 2 -x {1.0 7.0 0 ------- null}
+ -t 1.06070709451394 -s 7 -d 6 -p ack -e 40 -c 2 -i 18 -a 2 -x {7.0 1.0 1 ------- null}
- -t 1.06070709451394 -s 7 -d 6 -p ack -e 40 -c 2 -i 18 -a 2 -x {7.0 1.0 1 ------- null}
h -t 1.06070709451394 -s 7 -d 6 -p ack -e 40 -c 2 -i 18 -a 2 -x {7.0 1.0 -1 ------- null}
r -t 1.06902709451394 -s 6 -d 7 -p exp -e 1040 -c 2 -i 11 -a 2 -x {1.0 7.0 0 ------- null}
+ -t 1.06902709451394 -s 7 -d 6 -p ack -e 40 -c 2 -i 19 -a 2 -x {7.0 1.0 2 ------- null}
- -t 1.06902709451394 -s 7 -d 6 -p ack -e 40 -c 2 -i 19 -a 2 -x {7.0 1.0 2 ------- null}
h -t 1.06902709451394 -s 7 -d 6 -p ack -e 40 -c 2 -i 19 -a 2 -x {7.0 1.0 -1 ------- null}
r -t 1.11102709451394 -s 7 -d 6 -p ack -e 40 -c 2 -i 18 -a 2 -x {7.0 1.0 1 ------- null}
+ -t 1.11102709451394 -s 6 -d 3 -p ack -e 40 -c 2 -i 18 -a 2 -x {7.0 1.0 1 ------- null}
- -t 1.11102709451394 -s 6 -d 3 -p ack -e 40 -c 2 -i 18 -a 2 -x {7.0 1.0 1 ------- null}
h -t 1.11102709451394 -s 6 -d 3 -p ack -e 40 -c 2 -i 18 -a 2 -x {7.0 1.0 -1 ------- null}
r -t 1.11934709451394 -s 7 -d 6 -p ack -e 40 -c 2 -i 19 -a 2 -x {7.0 1.0 2 ------- null}
+ -t 1.11934709451394 -s 6 -d 3 -p ack -e 40 -c 2 -i 19 -a 2 -x {7.0 1.0 2 ------- null}
- -t 1.11934709451394 -s 6 -d 3 -p ack -e 40 -c 2 -i 19 -a 2 -x {7.0 1.0 2 ------- null}
h -t 1.11934709451394 -s 6 -d 3 -p ack -e 40 -c 2 -i 19 -a 2 -x {7.0 1.0 -1 ------- null}
r -t 1.121568 -s 5 -d 2 -p ack -e 40 -c 4 -i 16 -a 4 -x {5.0 3.0 1 ------- null}
+ -t 1.121568 -s 2 -d 1 -p ack -e 40 -c 4 -i 16 -a 4 -x {5.0 3.0 1 ------- null}
- -t 1.121568 -s 2 -d 1 -p ack -e 40 -c 4 -i 16 -a 4 -x {5.0 3.0 1 ------- null}
h -t 1.121568 -s 2 -d 1 -p ack -e 40 -c 4 -i 16 -a 4 -x {5.0 3.0 -1 ------- null}
r -t 1.129888 -s 5 -d 2 -p ack -e 40 -c 4 -i 17 -a 4 -x {5.0 3.0 2 ------- null}
+ -t 1.129888 -s 2 -d 1 -p ack -e 40 -c 4 -i 17 -a 4 -x {5.0 3.0 2 ------- null}
- -t 1.129888 -s 2 -d 1 -p ack -e 40 -c 4 -i 17 -a 4 -x {5.0 3.0 2 ------- null}
h -t 1.129888 -s 2 -d 1 -p ack -e 40 -c 4 -i 17 -a 4 -x {5.0 3.0 -1 ------- null}
r -t 1.168 -s 0 -d 4 -p tcp -e 1540 -c 1 -i 12 -a 1 -x {0.0 8.0 1 ------- null}
+ -t 1.168 -s 4 -d 8 -p tcp -e 1540 -c 1 -i 12 -a 1 -x {0.0 8.0 1 ------- null}
- -t 1.168 -s 4 -d 8 -p tcp -e 1540 -c 1 -i 12 -a 1 -x {0.0 8.0 1 ------- null}
h -t 1.168 -s 4 -d 8 -p tcp -e 1540 -c 1 -i 12 -a 1 -x {0.0 8.0 -1 ------- null}
r -t 1.171888 -s 2 -d 1 -p ack -e 40 -c 4 -i 16 -a 4 -x {5.0 3.0 1 ------- null}
+ -t 1.171888 -s 1 -d 0 -p ack -e 40 -c 4 -i 16 -a 4 -x {5.0 3.0 1 ------- null}
- -t 1.171888 -s 1 -d 0 -p ack -e 40 -c 4 -i 16 -a 4 -x {5.0 3.0 1 ------- null}
h -t 1.171888 -s 1 -d 0 -p ack -e 40 -c 4 -i 16 -a 4 -x {5.0 3.0 -1 ------- null}
r -t 1.17373698674386 -s 2 -d 4 -p exp -e 1040 -c 3 -i 14 -a 3 -x {2.0 6.0 0 ------- null}
+ -t 1.17373698674386 -s 4 -d 6 -p exp -e 1040 -c 3 -i 14 -a 3 -x {2.0 6.0 0 ------- null}
- -t 1.17373698674386 -s 4 -d 6 -p exp -e 1040 -c 3 -i 14 -a 3 -x {2.0 6.0 0 ------- null}
h -t 1.17373698674386 -s 4 -d 6 -p exp -e 1040 -c 3 -i 14 -a 3 -x {2.0 6.0 -1 ------- null}
r -t 1.180208 -s 2 -d 1 -p ack -e 40 -c 4 -i 17 -a 4 -x {5.0 3.0 2 ------- null}
+ -t 1.180208 -s 1 -d 0 -p ack -e 40 -c 4 -i 17 -a 4 -x {5.0 3.0 2 ------- null}
- -t 1.180208 -s 1 -d 0 -p ack -e 40 -c 4 -i 17 -a 4 -x {5.0 3.0 2 ------- null}
h -t 1.180208 -s 1 -d 0 -p ack -e 40 -c 4 -i 17 -a 4 -x {5.0 3.0 -1 ------- null}
r -t 1.21109109451394 -s 6 -d 3 -p ack -e 40 -c 2 -i 18 -a 2 -x {7.0 1.0 1 ------- null}
+ -t 1.21109109451394 -s 3 -d 0 -p ack -e 40 -c 2 -i 18 -a 2 -x {7.0 1.0 1 ------- null}
- -t 1.21109109451394 -s 3 -d 0 -p ack -e 40 -c 2 -i 18 -a 2 -x {7.0 1.0 1 ------- null}
h -t 1.21109109451394 -s 3 -d 0 -p ack -e 40 -c 2 -i 18 -a 2 -x {7.0 1.0 -1 ------- null}
r -t 1.21533698674386 -s 2 -d 4 -p exp -e 1040 -c 3 -i 15 -a 3 -x {2.0 6.0 0 ------- null}
+ -t 1.21533698674386 -s 4 -d 6 -p exp -e 1040 -c 3 -i 15 -a 3 -x {2.0 6.0 0 ------- null}
- -t 1.21533698674386 -s 4 -d 6 -p exp -e 1040 -c 3 -i 15 -a 3 -x {2.0 6.0 0 ------- null}
h -t 1.21533698674386 -s 4 -d 6 -p exp -e 1040 -c 3 -i 15 -a 3 -x {2.0 6.0 -1 ------- null}
r -t 1.21941109451394 -s 6 -d 3 -p ack -e 40 -c 2 -i 19 -a 2 -x {7.0 1.0 2 ------- null}
+ -t 1.21941109451394 -s 3 -d 0 -p ack -e 40 -c 2 -i 19 -a 2 -x {7.0 1.0 2 ------- null}
- -t 1.21941109451394 -s 3 -d 0 -p ack -e 40 -c 2 -i 19 -a 2 -x {7.0 1.0 2 ------- null}
h -t 1.21941109451394 -s 3 -d 0 -p ack -e 40 -c 2 -i 19 -a 2 -x {7.0 1.0 -1 ------- null}
r -t 1.222208 -s 1 -d 0 -p ack -e 40 -c 4 -i 16 -a 4 -x {5.0 3.0 1 ------- null}
+ -t 1.222208 -s 0 -d 3 -p ack -e 40 -c 4 -i 16 -a 4 -x {5.0 3.0 1 ------- null}
- -t 1.222208 -s 0 -d 3 -p ack -e 40 -c 4 -i 16 -a 4 -x {5.0 3.0 1 ------- null}
h -t 1.222208 -s 0 -d 3 -p ack -e 40 -c 4 -i 16 -a 4 -x {5.0 3.0 -1 ------- null}
r -t 1.2296 -s 0 -d 4 -p tcp -e 1540 -c 1 -i 13 -a 1 -x {0.0 8.0 2 ------- null}
+ -t 1.2296 -s 4 -d 8 -p tcp -e 1540 -c 1 -i 13 -a 1 -x {0.0 8.0 2 ------- null}
- -t 1.2296 -s 4 -d 8 -p tcp -e 1540 -c 1 -i 13 -a 1 -x {0.0 8.0 2 ------- null}
h -t 1.2296 -s 4 -d 8 -p tcp -e 1540 -c 1 -i 13 -a 1 -x {0.0 8.0 -1 ------- null}
r -t 1.230528 -s 1 -d 0 -p ack -e 40 -c 4 -i 17 -a 4 -x {5.0 3.0 2 ------- null}
+ -t 1.230528 -s 0 -d 3 -p ack -e 40 -c 4 -i 17 -a 4 -x {5.0 3.0 2 ------- null}
- -t 1.230528 -s 0 -d 3 -p ack -e 40 -c 4 -i 17 -a 4 -x {5.0 3.0 2 ------- null}
h -t 1.230528 -s 0 -d 3 -p ack -e 40 -c 4 -i 17 -a 4 -x {5.0 3.0 -1 ------- null}
r -t 1.31115509451394 -s 3 -d 0 -p ack -e 40 -c 2 -i 18 -a 2 -x {7.0 1.0 1 ------- null}
+ -t 1.31115509451394 -s 0 -d 1 -p ack -e 40 -c 2 -i 18 -a 2 -x {7.0 1.0 1 ------- null}
- -t 1.31115509451394 -s 0 -d 1 -p ack -e 40 -c 2 -i 18 -a 2 -x {7.0 1.0 1 ------- null}
h -t 1.31115509451394 -s 0 -d 1 -p ack -e 40 -c 2 -i 18 -a 2 -x {7.0 1.0 -1 ------- null}
r -t 1.31947509451394 -s 3 -d 0 -p ack -e 40 -c 2 -i 19 -a 2 -x {7.0 1.0 2 ------- null}
+ -t 1.31947509451394 -s 0 -d 1 -p ack -e 40 -c 2 -i 19 -a 2 -x {7.0 1.0 2 ------- null}
- -t 1.31947509451394 -s 0 -d 1 -p ack -e 40 -c 2 -i 19 -a 2 -x {7.0 1.0 2 ------- null}
h -t 1.31947509451394 -s 0 -d 1 -p ack -e 40 -c 2 -i 19 -a 2 -x {7.0 1.0 -1 ------- null}
r -t 1.322272 -s 0 -d 3 -p ack -e 40 -c 4 -i 16 -a 4 -x {5.0 3.0 1 ------- null}
+ -t 1.322272 -s 3 -d 0 -p tcp -e 1040 -c 4 -i 20 -a 4 -x {3.0 5.0 3 ------- null}
- -t 1.322272 -s 3 -d 0 -p tcp -e 1040 -c 4 -i 20 -a 4 -x {3.0 5.0 3 ------- null}
h -t 1.322272 -s 3 -d 0 -p tcp -e 1040 -c 4 -i 20 -a 4 -x {3.0 5.0 -1 ------- null}
+ -t 1.322272 -s 3 -d 0 -p tcp -e 1040 -c 4 -i 21 -a 4 -x {3.0 5.0 4 ------- null}
- -t 1.323936 -s 3 -d 0 -p tcp -e 1040 -c 4 -i 21 -a 4 -x {3.0 5.0 4 ------- null}
h -t 1.323936 -s 3 -d 0 -p tcp -e 1040 -c 4 -i 21 -a 4 -x {3.0 5.0 -1 ------- null}
r -t 1.330592 -s 0 -d 3 -p ack -e 40 -c 4 -i 17 -a 4 -x {5.0 3.0 2 ------- null}
+ -t 1.330592 -s 3 -d 0 -p tcp -e 1040 -c 4 -i 22 -a 4 -x {3.0 5.0 5 ------- null}
- -t 1.330592 -s 3 -d 0 -p tcp -e 1040 -c 4 -i 22 -a 4 -x {3.0 5.0 5 ------- null}
h -t 1.330592 -s 3 -d 0 -p tcp -e 1040 -c 4 -i 22 -a 4 -x {3.0 5.0 -1 ------- null}
+ -t 1.330592 -s 3 -d 0 -p tcp -e 1040 -c 4 -i 23 -a 4 -x {3.0 5.0 6 ------- null}
- -t 1.332256 -s 3 -d 0 -p tcp -e 1040 -c 4 -i 23 -a 4 -x {3.0 5.0 6 ------- null}
h -t 1.332256 -s 3 -d 0 -p tcp -e 1040 -c 4 -i 23 -a 4 -x {3.0 5.0 -1 ------- null}
r -t 1.36147509451394 -s 0 -d 1 -p ack -e 40 -c 2 -i 18 -a 2 -x {7.0 1.0 1 ------- null}
+ -t 1.36147509451394 -s 1 -d 0 -p exp -e 1040 -c 2 -i 24 -a 2 -x {1.0 7.0 0 ------- null}
- -t 1.36147509451394 -s 1 -d 0 -p exp -e 1040 -c 2 -i 24 -a 2 -x {1.0 7.0 0 ------- null}
h -t 1.36147509451394 -s 1 -d 0 -p exp -e 1040 -c 2 -i 24 -a 2 -x {1.0 7.0 -1 ------- null}
+ -t 1.36147509451394 -s 1 -d 0 -p exp -e 1040 -c 2 -i 25 -a 2 -x {1.0 7.0 0 ------- null}
r -t 1.36979509451394 -s 0 -d 1 -p ack -e 40 -c 2 -i 19 -a 2 -x {7.0 1.0 2 ------- null}
+ -t 1.36979509451394 -s 1 -d 0 -p exp -e 1040 -c 2 -i 26 -a 2 -x {1.0 7.0 0 ------- null}
+ -t 1.36979509451394 -s 1 -d 0 -p exp -e 1040 -c 2 -i 27 -a 2 -x {1.0 7.0 0 ------- null}
- -t 1.36979509451394 -s 1 -d 0 -p exp -e 1040 -c 2 -i 25 -a 2 -x {1.0 7.0 0 ------- null}
h -t 1.36979509451394 -s 1 -d 0 -p exp -e 1040 -c 2 -i 25 -a 2 -x {1.0 7.0 -1 ------- null}
- -t 1.37811509451394 -s 1 -d 0 -p exp -e 1040 -c 2 -i 26 -a 2 -x {1.0 7.0 0 ------- null}
h -t 1.37811509451394 -s 1 -d 0 -p exp -e 1040 -c 2 -i 26 -a 2 -x {1.0 7.0 -1 ------- null}
- -t 1.38643509451394 -s 1 -d 0 -p exp -e 1040 -c 2 -i 27 -a 2 -x {1.0 7.0 0 ------- null}
h -t 1.38643509451394 -s 1 -d 0 -p exp -e 1040 -c 2 -i 27 -a 2 -x {1.0 7.0 -1 ------- null}
r -t 1.41533698674386 -s 4 -d 6 -p exp -e 1040 -c 3 -i 14 -a 3 -x {2.0 6.0 0 ------- null}
+ -t 1.41533698674386 -s 6 -d 4 -p ack -e 40 -c 3 -i 28 -a 3 -x {6.0 2.0 1 ------- null}
- -t 1.41533698674386 -s 6 -d 4 -p ack -e 40 -c 3 -i 28 -a 3 -x {6.0 2.0 1 ------- null}
h -t 1.41533698674386 -s 6 -d 4 -p ack -e 40 -c 3 -i 28 -a 3 -x {6.0 2.0 -1 ------- null}
r -t 1.41979509451394 -s 1 -d 0 -p exp -e 1040 -c 2 -i 24 -a 2 -x {1.0 7.0 0 ------- null}
+ -t 1.41979509451394 -s 0 -d 3 -p exp -e 1040 -c 2 -i 24 -a 2 -x {1.0 7.0 0 ------- null}
- -t 1.41979509451394 -s 0 -d 3 -p exp -e 1040 -c 2 -i 24 -a 2 -x {1.0 7.0 0 ------- null}
h -t 1.41979509451394 -s 0 -d 3 -p exp -e 1040 -c 2 -i 24 -a 2 -x {1.0 7.0 -1 ------- null}
r -t 1.423936 -s 3 -d 0 -p tcp -e 1040 -c 4 -i 20 -a 4 -x {3.0 5.0 3 ------- null}
+ -t 1.423936 -s 0 -d 1 -p tcp -e 1040 -c 4 -i 20 -a 4 -x {3.0 5.0 3 ------- null}
- -t 1.423936 -s 0 -d 1 -p tcp -e 1040 -c 4 -i 20 -a 4 -x {3.0 5.0 3 ------- null}
h -t 1.423936 -s 0 -d 1 -p tcp -e 1040 -c 4 -i 20 -a 4 -x {3.0 5.0 -1 ------- null}
r -t 1.4256 -s 3 -d 0 -p tcp -e 1040 -c 4 -i 21 -a 4 -x {3.0 5.0 4 ------- null}
+ -t 1.4256 -s 0 -d 1 -p tcp -e 1040 -c 4 -i 21 -a 4 -x {3.0 5.0 4 ------- null}
r -t 1.42811509451394 -s 1 -d 0 -p exp -e 1040 -c 2 -i 25 -a 2 -x {1.0 7.0 0 ------- null}
+ -t 1.42811509451394 -s 0 -d 3 -p exp -e 1040 -c 2 -i 25 -a 2 -x {1.0 7.0 0 ------- null}
- -t 1.42811509451394 -s 0 -d 3 -p exp -e 1040 -c 2 -i 25 -a 2 -x {1.0 7.0 0 ------- null}
h -t 1.42811509451394 -s 0 -d 3 -p exp -e 1040 -c 2 -i 25 -a 2 -x {1.0 7.0 -1 ------- null}
r -t 1.4296 -s 4 -d 8 -p tcp -e 1540 -c 1 -i 12 -a 1 -x {0.0 8.0 1 ------- null}
+ -t 1.4296 -s 8 -d 4 -p ack -e 40 -c 1 -i 29 -a 1 -x {8.0 0.0 1 ------- null}
- -t 1.4296 -s 8 -d 4 -p ack -e 40 -c 1 -i 29 -a 1 -x {8.0 0.0 1 ------- null}
h -t 1.4296 -s 8 -d 4 -p ack -e 40 -c 1 -i 29 -a 1 -x {8.0 0.0 -1 ------- null}
r -t 1.432256 -s 3 -d 0 -p tcp -e 1040 -c 4 -i 22 -a 4 -x {3.0 5.0 5 ------- null}
+ -t 1.432256 -s 0 -d 1 -p tcp -e 1040 -c 4 -i 22 -a 4 -x {3.0 5.0 5 ------- null}
- -t 1.432256 -s 0 -d 1 -p tcp -e 1040 -c 4 -i 21 -a 4 -x {3.0 5.0 4 ------- null}
h -t 1.432256 -s 0 -d 1 -p tcp -e 1040 -c 4 -i 21 -a 4 -x {3.0 5.0 -1 ------- null}
r -t 1.43392 -s 3 -d 0 -p tcp -e 1040 -c 4 -i 23 -a 4 -x {3.0 5.0 6 ------- null}
+ -t 1.43392 -s 0 -d 1 -p tcp -e 1040 -c 4 -i 23 -a 4 -x {3.0 5.0 6 ------- null}
r -t 1.43643509451394 -s 1 -d 0 -p exp -e 1040 -c 2 -i 26 -a 2 -x {1.0 7.0 0 ------- null}
+ -t 1.43643509451394 -s 0 -d 3 -p exp -e 1040 -c 2 -i 26 -a 2 -x {1.0 7.0 0 ------- null}
- -t 1.43643509451394 -s 0 -d 3 -p exp -e 1040 -c 2 -i 26 -a 2 -x {1.0 7.0 0 ------- null}
h -t 1.43643509451394 -s 0 -d 3 -p exp -e 1040 -c 2 -i 26 -a 2 -x {1.0 7.0 -1 ------- null}
- -t 1.440576 -s 0 -d 1 -p tcp -e 1040 -c 4 -i 22 -a 4 -x {3.0 5.0 5 ------- null}
h -t 1.440576 -s 0 -d 1 -p tcp -e 1040 -c 4 -i 22 -a 4 -x {3.0 5.0 -1 ------- null}
r -t 1.44475509451394 -s 1 -d 0 -p exp -e 1040 -c 2 -i 27 -a 2 -x {1.0 7.0 0 ------- null}
+ -t 1.44475509451394 -s 0 -d 3 -p exp -e 1040 -c 2 -i 27 -a 2 -x {1.0 7.0 0 ------- null}
- -t 1.44475509451394 -s 0 -d 3 -p exp -e 1040 -c 2 -i 27 -a 2 -x {1.0 7.0 0 ------- null}
h -t 1.44475509451394 -s 0 -d 3 -p exp -e 1040 -c 2 -i 27 -a 2 -x {1.0 7.0 -1 ------- null}
- -t 1.448896 -s 0 -d 1 -p tcp -e 1040 -c 4 -i 23 -a 4 -x {3.0 5.0 6 ------- null}
h -t 1.448896 -s 0 -d 1 -p tcp -e 1040 -c 4 -i 23 -a 4 -x {3.0 5.0 -1 ------- null}
r -t 1.45693698674386 -s 4 -d 6 -p exp -e 1040 -c 3 -i 15 -a 3 -x {2.0 6.0 0 ------- null}
+ -t 1.45693698674386 -s 6 -d 4 -p ack -e 40 -c 3 -i 30 -a 3 -x {6.0 2.0 2 ------- null}
- -t 1.45693698674386 -s 6 -d 4 -p ack -e 40 -c 3 -i 30 -a 3 -x {6.0 2.0 2 ------- null}
h -t 1.45693698674386 -s 6 -d 4 -p ack -e 40 -c 3 -i 30 -a 3 -x {6.0 2.0 -1 ------- null}
r -t 1.482256 -s 0 -d 1 -p tcp -e 1040 -c 4 -i 20 -a 4 -x {3.0 5.0 3 ------- null}
+ -t 1.482256 -s 1 -d 2 -p tcp -e 1040 -c 4 -i 20 -a 4 -x {3.0 5.0 3 ------- null}
- -t 1.482256 -s 1 -d 2 -p tcp -e 1040 -c 4 -i 20 -a 4 -x {3.0 5.0 3 ------- null}
h -t 1.482256 -s 1 -d 2 -p tcp -e 1040 -c 4 -i 20 -a 4 -x {3.0 5.0 -1 ------- null}
r -t 1.490576 -s 0 -d 1 -p tcp -e 1040 -c 4 -i 21 -a 4 -x {3.0 5.0 4 ------- null}
+ -t 1.490576 -s 1 -d 2 -p tcp -e 1040 -c 4 -i 21 -a 4 -x {3.0 5.0 4 ------- null}
- -t 1.490576 -s 1 -d 2 -p tcp -e 1040 -c 4 -i 21 -a 4 -x {3.0 5.0 4 ------- null}
h -t 1.490576 -s 1 -d 2 -p tcp -e 1040 -c 4 -i 21 -a 4 -x {3.0 5.0 -1 ------- null}
r -t 1.4912 -s 4 -d 8 -p tcp -e 1540 -c 1 -i 13 -a 1 -x {0.0 8.0 2 ------- null}
+ -t 1.4912 -s 8 -d 4 -p ack -e 40 -c 1 -i 31 -a 1 -x {8.0 0.0 2 ------- null}
- -t 1.4912 -s 8 -d 4 -p ack -e 40 -c 1 -i 31 -a 1 -x {8.0 0.0 2 ------- null}
h -t 1.4912 -s 8 -d 4 -p ack -e 40 -c 1 -i 31 -a 1 -x {8.0 0.0 -1 ------- null}
r -t 1.498896 -s 0 -d 1 -p tcp -e 1040 -c 4 -i 22 -a 4 -x {3.0 5.0 5 ------- null}